# vtk DataFile Version 3.0 
Date: 5/2/2016   Time: 21:25
ASCII 
DATASET UNSTRUCTURED_GRID 
 
POINTS 1200 float 
0.100000 0.500000 0.000000 
0.150000 0.450000 0.000000 
0.200000 0.400000 0.000000 
0.200000 0.450000 0.000000 
0.200000 0.500000 0.000000 
0.150000 0.500000 0.000000 
0.300000 0.200000 0.000000 
0.300000 0.250000 0.000000 
0.300000 0.300000 0.000000 
0.250000 0.300000 0.000000 
0.200000 0.300000 0.000000 
0.250000 0.250000 0.000000 
0.300000 0.600000 0.000000 
0.300000 0.650000 0.000000 
0.300000 0.700000 0.000000 
0.250000 0.700000 0.000000 
0.200000 0.700000 0.000000 
0.250000 0.650000 0.000000 
0.200000 0.900000 0.000000 
0.150000 0.900000 0.000000 
0.100000 0.900000 0.000000 
0.150000 0.850000 0.000000 
0.200000 0.800000 0.000000 
0.200000 0.850000 0.000000 
0.400000 0.200000 0.000000 
0.400000 0.250000 0.000000 
0.400000 0.300000 0.000000 
0.350000 0.300000 0.000000 
0.300000 0.300000 0.000000 
0.350000 0.250000 0.000000 
0.400000 0.100000 0.000000 
0.400000 0.050000 0.000000 
0.400000 0.000000 0.000000 
0.450000 0.000000 0.000000 
0.500000 0.000000 0.000000 
0.450000 0.050000 0.000000 
0.100000 0.800000 0.000000 
0.150000 0.800000 0.000000 
0.200000 0.800000 0.000000 
0.150000 0.850000 0.000000 
0.100000 0.900000 0.000000 
0.100000 0.850000 0.000000 
0.200000 0.200000 0.000000 
0.250000 0.150000 0.000000 
0.300000 0.100000 0.000000 
0.300000 0.150000 0.000000 
0.300000 0.200000 0.000000 
0.250000 0.200000 0.000000 
0.600000 0.300000 0.000000 
0.650000 0.250000 0.000000 
0.700000 0.200000 0.000000 
0.700000 0.250000 0.000000 
0.700000 0.300000 0.000000 
0.650000 0.300000 0.000000 
0.600000 0.100000 0.000000 
0.550000 0.100000 0.000000 
0.500000 0.100000 0.000000 
0.550000 0.050000 0.000000 
0.600000 0.000000 0.000000 
0.600000 0.050000 0.000000 
0.800000 0.400000 0.000000 
0.800000 0.350000 0.000000 
0.800000 0.300000 0.000000 
0.850000 0.300000 0.000000 
0.900000 0.300000 0.000000 
0.850000 0.350000 0.000000 
0.100000 0.100000 0.000000 
0.050000 0.150000 0.000000 
0.000000 0.200000 0.000000 
0.000000 0.150000 0.000000 
0.000000 0.100000 0.000000 
0.050000 0.100000 0.000000 
0.100000 0.200000 0.000000 
0.150000 0.200000 0.000000 
0.200000 0.200000 0.000000 
0.150000 0.250000 0.000000 
0.100000 0.300000 0.000000 
0.100000 0.250000 0.000000 
0.200000 0.100000 0.000000 
0.150000 0.100000 0.000000 
0.100000 0.100000 0.000000 
0.150000 0.050000 0.000000 
0.200000 0.000000 0.000000 
0.200000 0.050000 0.000000 
0.300000 0.100000 0.000000 
0.350000 0.100000 0.000000 
0.400000 0.100000 0.000000 
0.350000 0.150000 0.000000 
0.300000 0.200000 0.000000 
0.300000 0.150000 0.000000 
0.600000 0.700000 0.000000 
0.600000 0.650000 0.000000 
0.600000 0.600000 0.000000 
0.650000 0.600000 0.000000 
0.700000 0.600000 0.000000 
0.650000 0.650000 0.000000 
0.100000 0.200000 0.000000 
0.100000 0.250000 0.000000 
0.100000 0.300000 0.000000 
0.050000 0.300000 0.000000 
0.000000 0.300000 0.000000 
0.050000 0.250000 0.000000 
0.300000 0.500000 0.000000 
0.300000 0.450000 0.000000 
0.300000 0.400000 0.000000 
0.350000 0.400000 0.000000 
0.400000 0.400000 0.000000 
0.350000 0.450000 0.000000 
0.200000 0.300000 0.000000 
0.200000 0.350000 0.000000 
0.200000 0.400000 0.000000 
0.150000 0.400000 0.000000 
0.100000 0.400000 0.000000 
0.150000 0.350000 0.000000 
0.100000 0.200000 0.000000 
0.100000 0.150000 0.000000 
0.100000 0.100000 0.000000 
0.150000 0.100000 0.000000 
0.200000 0.100000 0.000000 
0.150000 0.150000 0.000000 
0.200000 0.300000 0.000000 
0.250000 0.300000 0.000000 
0.300000 0.300000 0.000000 
0.250000 0.350000 0.000000 
0.200000 0.400000 0.000000 
0.200000 0.350000 0.000000 
0.100000 0.600000 0.000000 
0.150000 0.600000 0.000000 
0.200000 0.600000 0.000000 
0.150000 0.650000 0.000000 
0.100000 0.700000 0.000000 
0.100000 0.650000 0.000000 
0.000000 0.400000 0.000000 
0.050000 0.350000 0.000000 
0.100000 0.300000 0.000000 
0.100000 0.350000 0.000000 
0.100000 0.400000 0.000000 
0.050000 0.400000 0.000000 
0.000000 0.500000 0.000000 
0.050000 0.500000 0.000000 
0.100000 0.500000 0.000000 
0.050000 0.550000 0.000000 
0.000000 0.600000 0.000000 
0.000000 0.550000 0.000000 
0.200000 0.600000 0.000000 
0.250000 0.600000 0.000000 
0.300000 0.600000 0.000000 
0.250000 0.650000 0.000000 
0.200000 0.700000 0.000000 
0.200000 0.650000 0.000000 
0.400000 0.700000 0.000000 
0.400000 0.750000 0.000000 
0.400000 0.800000 0.000000 
0.350000 0.800000 0.000000 
0.300000 0.800000 0.000000 
0.350000 0.750000 0.000000 
0.200000 0.900000 0.000000 
0.150000 0.950000 0.000000 
0.100000 1.000000 0.000000 
0.100000 0.950000 0.000000 
0.100000 0.900000 0.000000 
0.150000 0.900000 0.000000 
0.400000 0.500000 0.000000 
0.450000 0.450000 0.000000 
0.500000 0.400000 0.000000 
0.500000 0.450000 0.000000 
0.500000 0.500000 0.000000 
0.450000 0.500000 0.000000 
0.200000 0.800000 0.000000 
0.250000 0.800000 0.000000 
0.300000 0.800000 0.000000 
0.250000 0.850000 0.000000 
0.200000 0.900000 0.000000 
0.200000 0.850000 0.000000 
0.400000 0.500000 0.000000 
0.400000 0.450000 0.000000 
0.400000 0.400000 0.000000 
0.450000 0.400000 0.000000 
0.500000 0.400000 0.000000 
0.450000 0.450000 0.000000 
0.600000 0.300000 0.000000 
0.550000 0.300000 0.000000 
0.500000 0.300000 0.000000 
0.550000 0.250000 0.000000 
0.600000 0.200000 0.000000 
0.600000 0.250000 0.000000 
0.600000 0.500000 0.000000 
0.600000 0.550000 0.000000 
0.600000 0.600000 0.000000 
0.550000 0.600000 0.000000 
0.500000 0.600000 0.000000 
0.550000 0.550000 0.000000 
0.500000 0.700000 0.000000 
0.450000 0.750000 0.000000 
0.400000 0.800000 0.000000 
0.400000 0.750000 0.000000 
0.400000 0.700000 0.000000 
0.450000 0.700000 0.000000 
0.600000 0.700000 0.000000 
0.650000 0.700000 0.000000 
0.700000 0.700000 0.000000 
0.650000 0.750000 0.000000 
0.600000 0.800000 0.000000 
0.600000 0.750000 0.000000 
0.000000 1.000000 0.000000 
0.000000 0.950000 0.000000 
0.000000 0.900000 0.000000 
0.050000 0.900000 0.000000 
0.100000 0.900000 0.000000 
0.050000 0.950000 0.000000 
0.600000 0.500000 0.000000 
0.650000 0.500000 0.000000 
0.700000 0.500000 0.000000 
0.650000 0.550000 0.000000 
0.600000 0.600000 0.000000 
0.600000 0.550000 0.000000 
0.400000 0.900000 0.000000 
0.450000 0.900000 0.000000 
0.500000 0.900000 0.000000 
0.450000 0.950000 0.000000 
0.400000 1.000000 0.000000 
0.400000 0.950000 0.000000 
0.900000 1.000000 0.000000 
0.950000 0.950000 0.000000 
1.000000 0.900000 0.000000 
1.000000 0.950000 0.000000 
1.000000 1.000000 0.000000 
0.950000 1.000000 0.000000 
0.600000 1.000000 0.000000 
0.550000 1.000000 0.000000 
0.500000 1.000000 0.000000 
0.550000 0.950000 0.000000 
0.600000 0.900000 0.000000 
0.600000 0.950000 0.000000 
1.000000 0.800000 0.000000 
1.000000 0.850000 0.000000 
1.000000 0.900000 0.000000 
0.950000 0.900000 0.000000 
0.900000 0.900000 0.000000 
0.950000 0.850000 0.000000 
0.700000 0.800000 0.000000 
0.700000 0.850000 0.000000 
0.700000 0.900000 0.000000 
0.650000 0.900000 0.000000 
0.600000 0.900000 0.000000 
0.650000 0.850000 0.000000 
0.600000 0.200000 0.000000 
0.600000 0.150000 0.000000 
0.600000 0.100000 0.000000 
0.650000 0.100000 0.000000 
0.700000 0.100000 0.000000 
0.650000 0.150000 0.000000 
0.900000 0.600000 0.000000 
0.900000 0.550000 0.000000 
0.900000 0.500000 0.000000 
0.950000 0.500000 0.000000 
1.000000 0.500000 0.000000 
0.950000 0.550000 0.000000 
0.700000 0.300000 0.000000 
0.700000 0.350000 0.000000 
0.700000 0.400000 0.000000 
0.650000 0.400000 0.000000 
0.600000 0.400000 0.000000 
0.650000 0.350000 0.000000 
0.900000 0.400000 0.000000 
0.900000 0.350000 0.000000 
0.900000 0.300000 0.000000 
0.950000 0.300000 0.000000 
1.000000 0.300000 0.000000 
0.950000 0.350000 0.000000 
0.700000 0.200000 0.000000 
0.700000 0.150000 0.000000 
0.700000 0.100000 0.000000 
0.750000 0.100000 0.000000 
0.800000 0.100000 0.000000 
0.750000 0.150000 0.000000 
1.000000 0.200000 0.000000 
1.000000 0.250000 0.000000 
1.000000 0.300000 0.000000 
0.950000 0.300000 0.000000 
0.900000 0.300000 0.000000 
0.950000 0.250000 0.000000 
0.800000 0.100000 0.000000 
0.800000 0.050000 0.000000 
0.800000 0.000000 0.000000 
0.850000 0.000000 0.000000 
0.900000 0.000000 0.000000 
0.850000 0.050000 0.000000 
0.900000 0.400000 0.000000 
0.950000 0.400000 0.000000 
1.000000 0.400000 0.000000 
0.950000 0.450000 0.000000 
0.900000 0.500000 0.000000 
0.900000 0.450000 0.000000 
0.800000 0.300000 0.000000 
0.850000 0.250000 0.000000 
0.900000 0.200000 0.000000 
0.900000 0.250000 0.000000 
0.900000 0.300000 0.000000 
0.850000 0.300000 0.000000 
0.000000 0.100000 0.000000 
0.000000 0.050000 0.000000 
0.000000 0.000000 0.000000 
0.050000 0.000000 0.000000 
0.100000 0.000000 0.000000 
0.050000 0.050000 0.000000 
0.100000 0.100000 0.000000 
0.050000 0.100000 0.000000 
0.000000 0.100000 0.000000 
0.050000 0.050000 0.000000 
0.100000 0.000000 0.000000 
0.100000 0.050000 0.000000 
0.200000 0.200000 0.000000 
0.200000 0.150000 0.000000 
0.200000 0.100000 0.000000 
0.250000 0.100000 0.000000 
0.300000 0.100000 0.000000 
0.250000 0.150000 0.000000 
0.200000 0.200000 0.000000 
0.150000 0.200000 0.000000 
0.100000 0.200000 0.000000 
0.150000 0.150000 0.000000 
0.200000 0.100000 0.000000 
0.200000 0.150000 0.000000 
0.200000 0.000000 0.000000 
0.150000 0.050000 0.000000 
0.100000 0.100000 0.000000 
0.100000 0.050000 0.000000 
0.100000 0.000000 0.000000 
0.150000 0.000000 0.000000 
0.100000 0.200000 0.000000 
0.050000 0.200000 0.000000 
0.000000 0.200000 0.000000 
0.050000 0.150000 0.000000 
0.100000 0.100000 0.000000 
0.100000 0.150000 0.000000 
0.200000 0.100000 0.000000 
0.200000 0.050000 0.000000 
0.200000 0.000000 0.000000 
0.250000 0.000000 0.000000 
0.300000 0.000000 0.000000 
0.250000 0.050000 0.000000 
0.200000 0.100000 0.000000 
0.250000 0.050000 0.000000 
0.300000 0.000000 0.000000 
0.300000 0.050000 0.000000 
0.300000 0.100000 0.000000 
0.250000 0.100000 0.000000 
0.300000 0.000000 0.000000 
0.350000 0.000000 0.000000 
0.400000 0.000000 0.000000 
0.350000 0.050000 0.000000 
0.300000 0.100000 0.000000 
[...]
CELL_DATA 200
FIELD FieldData 1
material 1 200 int
1
1
1
1
1
1
1
1
1
1
1
1
1
1
1
1
1
1
1
1
1
1
1
1
1
1
1
1
1
1
1
1
1
1
1
1
1
1
1
1
1
1
1
1
1
1
1
1
1
1
1
1
1
1
1
1
1
1
1
1
1
1
1
1
1
1
1
1
1
1
1
1
1
1
1
1
1
1
1
1
1
1
1
1
1
1
1
1
1
1
1
1
1
1
1
1
1
1
1
1
1
1
1
1
1
1
1
1
1
1
1
1
1
1
1
1
1
1
1
1
1
1
1
1
1
1
1
1
1
1
1
1
1
1
1
1
1
1
1
1
1
1
1
1
1
1
1
1
1
1
1
1
1
1
1
1
1
1
1
1
1
1
1
1
1
1
1
1
1
1
1
1
1
1
1
1
1
1
1
1
1
1
1
1
1
1
1
1
1
1
1
1
1
1
1
1
1
1
1
1
POINT_DATA 1200 SCALARS flux double 
LOOKUP_TABLE   default 
1.65067979e-04
-6.86633749e-03
-1.91724752e-04
-2.35894862e-03
-3.76676010e-05
-3.88569291e-03
-1.78328956e-05
-3.16809870e-03
-4.43955781e-05
-3.16809870e-03
-1.78328956e-05
-9.67135699e-03
-2.36915990e-04
-3.20832076e-03
-1.40874077e-05
-3.35751077e-03
2.53839738e-04
-4.12042884e-03
4.68713430e-07
-1.56106690e-03
4.24895667e-04
3.71784240e-03
-4.07592028e-04
-2.39437901e-03
4.99053732e-05
-3.68670464e-03
-3.65770532e-05
-3.17907243e-03
-7.29398887e-05
-8.75338898e-03
-1.89587197e-04
-3.85416372e-03
6.85928026e-05
-2.60092554e-04
2.80076888e-04
-6.14506679e-03
4.68713430e-07
-2.39437901e-03
-4.07592028e-04
3.71784240e-03
4.24895667e-04
-1.56106690e-03
-8.26098793e-05
-1.02710777e-02
2.93592069e-05
-3.16074671e-03
-5.27116370e-05
-2.33781249e-03
-2.36915990e-04
-4.12042884e-03
2.53839738e-04
-3.35751077e-03
-1.40874077e-05
-3.20832076e-03
-3.97856246e-05
-1.22176857e-03
-3.09333613e-04
-3.08815282e-03
2.79047825e-04
-3.77815422e-03
-2.99912066e-04
-2.37860893e-03
-2.31035644e-05
-3.35316297e-03
3.00038546e-04
-2.20644890e-03
9.50473565e-06
-1.28297586e-02
1.29149627e-04
-2.86668465e-04
8.54795613e-05
-1.63590595e-03
5.04833315e-05
-2.68149153e-03
-6.53786599e-06
-1.05790988e-02
1.07997500e-04
-1.62010074e-03
-7.02325334e-05
-1.18678202e-03
-9.56109960e-05
-1.24218422e-02
2.31213549e-05
-2.32735979e-03
3.89532102e-05
-1.61031767e-03
1.62452424e-04
-8.98209435e-03
-7.30310819e-05
-3.41644066e-03
-4.42947997e-06
-3.69864167e-03
-2.92060857e-05
-3.69864167e-03
-4.42947997e-06
-8.46490663e-03
-1.44472873e-04
-1.19431811e-03
-6.31270445e-05
-3.15789523e-03
8.46286453e-05
-1.05588746e-02
8.92335750e-05
-3.38967932e-03
9.39673128e-06
-3.82326095e-03
-3.31214361e-05
-7.96590836e-03
-1.36593453e-04
-2.34869986e-03
-4.55251977e-05
-3.68007061e-03
9.70529876e-05
-8.72583322e-03
5.64193762e-05
-1.62812485e-03
6.10051155e-05
-1.62812485e-03
5.64193762e-05
-1.18609110e-02
2.80380305e-05
-3.40973719e-03
-2.01355487e-05
-8.96095533e-03
1.01556375e-04
-2.66390656e-03
1.70510528e-05
-3.74459366e-03
-2.76347325e-04
-2.30603866e-03
3.25586656e-04
-1.57810252e-03
1.48950014e-04
-8.38133908e-03
-2.00065062e-04
-1.20431503e-03
-5.57236889e-05
-3.67765898e-03
6.55802005e-05
-3.96799962e-03
-2.57040002e-04
-3.28950019e-03
3.31211011e-04
-2.49524380e-04
4.94452932e-06
-3.73772445e-03
-2.23569769e-04
-4.17099142e-03
2.65654565e-04
-2.63455358e-03
-2.23569769e-04
-3.73772445e-03
4.94452932e-06
-2.63455358e-03
2.65654565e-04
-4.17099142e-03
-4.73689424e-04
7.21526545e-03
4.67362739e-04
-1.56970170e-03
-9.70270916e-06
-1.24499193e-03
7.96581916e-06
-7.88699008e-03
7.96581916e-06
-3.91381098e-03
-1.32658717e-05
-3.91381098e-03
-1.13359423e-05
-2.38883680e-03
-3.54934450e-04
5.95483150e-04
3.66322866e-04
-2.61756789e-03
2.11733902e-05
-3.81342768e-03
1.95291887e-06
-3.81342768e-03
2.11733902e-05
-7.93926119e-03
-2.09987710e-05
-3.19866691e-03
-1.82385613e-04
-5.97783728e-03
1.84919549e-04
-3.78107719e-03
2.11733902e-05
-3.81342768e-03
1.95291887e-06
-3.81342768e-03
2.11733902e-05
-7.93926119e-03
-1.82385613e-04
-5.97783728e-03
1.84919549e-04
-3.78107719e-03
-2.09987710e-05
-3.19866691e-03
-3.65770532e-05
-3.17907243e-03
-7.29398887e-05
-8.75338898e-03
4.99053732e-05
-3.68670464e-03
5.00411502e-04
-2.11176458e-04
4.85059435e-05
-1.27722226e-03
-5.22858435e-04
1.12954237e-02
-2.10952809e-05
-3.90330924e-03
6.29844509e-05
-7.86144990e-03
-5.97974461e-05
-3.70856727e-03
-3.97856246e-05
-1.22176857e-03
-3.09333613e-04
-3.08815282e-03
2.79047825e-04
-3.77815422e-03
8.36562708e-05
-1.44320062e-02
8.36562708e-05
-2.93155734e-04
1.00558237e-04
-2.93155734e-04
6.85928026e-05
-2.60092554e-04
2.80076888e-04
-6.14506679e-03
-1.89587197e-04
-3.85416372e-03
1.29149627e-04
-2.86668465e-04
8.54795613e-05
-1.63590595e-03
9.50473565e-06
-1.28297586e-02
-7.30310819e-05
-3.41644066e-03
3.89532102e-05
-1.61031767e-03
1.62452424e-04
-8.98209435e-03
-2.76347325e-04
-3.74459366e-03
1.70510528e-05
-1.57810252e-03
3.25586656e-04
-2.30603866e-03
-2.55087090e-04
-1.21342031e-03
-4.76947869e-05
-3.88532567e-03
2.14261906e-04
-5.89150466e-03
1.99105208e-04
-3.36991977e-03
-6.80127686e-06
-3.72759998e-03
-1.68181313e-04
-5.71550326e-03
-3.63935721e-04
-1.23064369e-03
-3.27700649e-05
-3.35522574e-03
3.43462140e-04
3.01157765e-05
-3.44906430e-04
-3.22483939e-03
9.33317732e-06
-1.56747790e-03
3.78602686e-04
5.48025180e-04
4.31330281e-04
-2.29559621e-04
5.74904572e-05
-3.24930673e-03
-3.93443752e-04
3.36830051e-03
-4.59885081e-04
-2.41760033e-03
5.15960354e-05
-2.22856378e-04
4.78844751e-04
7.16950348e-03
-3.97856246e-05
-3.77815422e-03
2.79047825e-04
-3.08815282e-03
-3.09333613e-04
-1.22176857e-03
-3.44906430e-04
5.48025180e-04
3.78602686e-04
-1.56747790e-03
9.33317732e-06
-3.22483939e-03
8.36562708e-05
-2.93155734e-04
1.00558237e-04
-2.93155734e-04
8.36562708e-05
-1.44320062e-02
-7.99461371e-05
-1.18273839e-03
-3.76936334e-05
-1.39726902e-02
-3.76936334e-05
-1.18273839e-03
-6.53786599e-06
-2.68149153e-03
5.04833315e-05
-1.62010074e-03
1.07997500e-04
-1.05790988e-02
-6.10594514e-05
-2.33115348e-03
-3.37227763e-05
-1.15038798e-02
-3.37227763e-05
-2.33115348e-03
1.29149627e-04
-1.28297586e-02
9.50473565e-06
-1.63590595e-03
8.54795613e-05
-2.86668465e-04
-7.02325334e-05
-2.32735979e-03
2.31213549e-05
-1.24218422e-02
-9.56109960e-05
-1.18678202e-03
-5.33556571e-05
-2.69121876e-03
7.93600510e-05
-2.79754583e-04
1.78384102e-04
-1.09174795e-02
-1.44472873e-04
-1.05588746e-02
8.46286453e-05
-3.15789523e-03
-6.31270445e-05
-1.19431811e-03
7.25459607e-05
-2.70401540e-04
2.28955615e-04
-8.68765853e-03
-1.21540142e-04
-3.42812966e-03
3.43462140e-04
-3.35522574e-03
-3.27700649e-05
-1.23064369e-03
-3.63935721e-04
3.01157765e-05
-8.79962395e-05
-3.83326931e-03
2.04049479e-05
-2.65431443e-03
1.55729681e-04
-7.67784696e-03
-2.57040002e-04
-3.96799962e-03
6.55802005e-05
-2.49524380e-04
3.31211011e-04
-3.28950019e-03
-1.41352273e-04
-3.83977014e-03
3.16344063e-05
-1.59963571e-03
2.16799184e-04
-7.07015789e-03
-2.00065062e-04
-8.38133908e-03
1.48950014e-04
-3.67765898e-03
-5.57236889e-05
-1.20431503e-03
-1.91724752e-04
-6.86633749e-03
1.65067979e-04
-3.88569291e-03
-3.76676010e-05
-2.35894862e-03
-2.55087090e-04
-5.89150466e-03
2.14261906e-04
-3.88532567e-03
-4.76947869e-05
-1.21342031e-03
-2.85583460e-05
-3.18915508e-03
-1.27909824e-04
-7.52254862e-03
1.17611151e-04
-3.89139861e-03
-1.36593453e-04
-8.72583322e-03
9.70529876e-05
-3.68007061e-03
-4.55251977e-05
-2.34869986e-03
-2.10952809e-05
-3.70856727e-03
-5.97974461e-05
-7.86144990e-03
6.29844509e-05
-3.90330924e-03
3.51995621e-05
-3.39954743e-03
1.65914728e-05
-3.39954743e-03
3.51995621e-05
-8.62131943e-03
1.43674771e-04
-6.99737308e-03
-1.00347408e-04
-3.93275826e-03
1.30228863e-06
-3.38034025e-03
-2.23569769e-04
-3.73772445e-03
4.94452932e-06
-2.63455358e-03
2.65654565e-04
-4.17099142e-03
1.01556375e-04
-8.96095533e-03
-2.01355487e-05
-3.40973719e-03
2.80380305e-05
-2.66390656e-03
-3.65770532e-05
-3.68670464e-03
4.99053732e-05
-8.75338898e-03
-7.29398887e-05
-3.17907243e-03
-4.42947997e-06
-3.69864167e-03
-2.92060857e-05
-3.69864167e-03
-4.42947997e-06
-8.46490663e-03
9.39673128e-06
-3.38967932e-03
8.92335750e-05
-7.96590836e-03
-3.31214361e-05
-3.82326095e-03
2.47090923e-05
-3.94957381e-03
-2.08795306e-04
-4.84503361e-03
2.70960703e-04
-1.58896512e-03
2.04049479e-05
-3.83326931e-03
-8.79962395e-05
-7.67784696e-03
1.55729681e-04
-2.65431443e-03
2.16799184e-04
-1.59963571e-03
3.16344063e-05
-3.83977014e-03
-1.41352273e-04
-7.07015789e-03
3.89532102e-05
-3.41644066e-03
-7.30310819e-05
-8.98209435e-03
1.62452424e-04
-1.61031767e-03
-8.26098793e-05
-2.33781249e-03
-5.27116370e-05
-3.16074671e-03
2.93592069e-05
-1.02710777e-02
3.84236365e-05
-2.67427501e-03
4.70710910e-05
-9.93048449e-03
4.70710910e-05
-2.67427501e-03
7.93600510e-05
-2.69121876e-03
-5.33556571e-05
-1.09174795e-02
1.78384102e-04
-2.79754583e-04
7.25459607e-05
-3.42812966e-03
-1.21540142e-04
-8.68765853e-03
2.28955615e-04
-2.70401540e-04
6.85928026e-05
-3.85416372e-03
-1.89587197e-04
-6.14506679e-03
2.80076888e-04
-2.60092554e-04
2.79047825e-04
-3.08815282e-03
-3.09333613e-04
-1.22176857e-03
-3.97856246e-05
-3.77815422e-03
2.14261906e-04
-5.89150466e-03
-2.55087090e-04
-1.21342031e-03
-4.76947869e-05
-3.88532567e-03
-2.99912066e-04
-2.37860893e-03
-2.31035644e-05
-3.35316297e-03
3.00038546e-04
-2.20644890e-03
-2.92468555e-04
-3.21861524e-03
-1.72744875e-06
-2.62205264e-03
3.19796302e-04
-1.94756325e-03
3.78602686e-04
-1.56747790e-03
9.33317732e-06
-3.22483939e-03
-3.44906430e-04
5.48025180e-04
-1.72744875e-06
-3.21861524e-03
-2.92468555e-04
-1.94756325e-03
3.19796302e-04
-2.62205264e-03
6.19396031e-05
-3.76686725e-03
-3.24643912e-04
-1.19243048e-04
3.82218017e-04
-2.39032703e-04
-3.63935721e-04
-1.23064369e-03
-3.27700649e-05
-3.35522574e-03
3.43462140e-04
3.01157765e-05
-3.54934450e-04
-2.38883680e-03
-1.13359423e-05
-2.61756789e-03
3.66322866e-04
5.95483150e-04
5.74904572e-05
-3.24930673e-03
-3.93443752e-04
3.36830051e-03
4.31330281e-04
-2.29559621e-04
5.15960354e-05
-2.41760033e-03
-4.59885081e-04
7.16950348e-03
4.78844751e-04
-2.22856378e-04
5.00411502e-04
1.12954237e-02
-5.22858435e-04
-1.27722226e-03
4.85059435e-05
-2.11176458e-04
4.67362739e-04
7.21526545e-03
-4.73689424e-04
-1.24499193e-03
-9.70270916e-06
-1.56970170e-03
4.06332977e-04
3.46564381e-03
-4.19893184e-04
-1.24109600e-03
-2.44959246e-05
-2.61654813e-03
9.33317732e-06
-1.56747790e-03
3.78602686e-04
5.48025180e-04
-3.44906430e-04
-3.22483939e-03
-4.19893184e-04
3.46564381e-03
4.06332977e-04
-2.61654813e-03
-2.44959246e-05
-1.24109600e-03
-3.24643912e-04
-3.76686725e-03
6.19396031e-05
-2.39032703e-04
3.82218017e-04
-1.19243048e-04
5.15960354e-05
-2.22856378e-04
4.78844751e-04
7.16950348e-03
-4.59885081e-04
-2.41760033e-03
5.74904572e-05
-2.29559621e-04
4.31330281e-04
3.36830051e-03
-3.93443752e-04
-3.24930673e-03
-3.63935721e-04
3.01157765e-05
3.43462140e-04
-3.35522574e-03
-3.27700649e-05
-1.23064369e-03
-2.31035644e-05
-2.37860893e-03
-2.99912066e-04
-2.20644890e-03
3.00038546e-04
-3.35316297e-03
-1.40874077e-05
-3.20832076e-03
-2.36915990e-04
-4.12042884e-03
2.53839738e-04
-3.35751077e-03
-2.57040002e-04
-3.96799962e-03
6.55802005e-05
-2.49524380e-04
3.31211011e-04
-3.28950019e-03
-2.76347325e-04
-3.74459366e-03
1.70510528e-05
-1.57810252e-03
3.25586656e-04
-2.30603866e-03
-2.99985956e-05
-2.36852956e-03
-2.45769409e-04
-4.69329926e-03
2.32395358e-04
-3.77655051e-03
7.53422772e-05
-3.80400457e-03
-5.67091843e-06
-3.92322545e-03
-4.62754225e-05
-7.59858665e-03
1.43674771e-04
-3.38034025e-03
1.30228863e-06
-3.93275826e-03
-1.00347408e-04
-6.99737308e-03
-2.45769409e-04
-2.36852956e-03
-2.99985956e-05
-3.77655051e-03
2.32395358e-04
-4.69329926e-03
1.28559953e-05
-3.94295987e-03
-1.55559564e-04
-6.08104978e-03
2.09976922e-04
-2.64476514e-03
-6.80127686e-06
-3.72759998e-03
-1.68181313e-04
-5.71550326e-03
1.99105208e-04
-3.36991977e-03
-2.10952809e-05
-3.70856727e-03
-5.97974461e-05
-7.86144990e-03
6.29844509e-05
-3.90330924e-03
1.84919549e-04
-5.97783728e-03
-1.82385613e-04
-3.19866691e-03
-2.09987710e-05
-3.78107719e-03
1.17611151e-04
-7.52254862e-03
-1.27909824e-04
-3.18915508e-03
-2.85583460e-05
-3.89139861e-03
1.30525593e-04
-3.79347133e-03
-1.36259791e-05
-3.71817217e-03
-1.13906192e-04
-6.94505883e-03
6.29844509e-05
-7.86144990e-03
-5.97974461e-05
-3.70856727e-03
-2.10952809e-05
-3.90330924e-03
1.99105208e-04
-5.71550326e-03
-1.68181313e-04
-3.72759998e-03
-6.80127686e-06
-3.36991977e-03
1.30525593e-04
-6.94505883e-03
-1.13906192e-04
-3.71817217e-03
-1.36259791e-05
-3.79347133e-03
1.17611151e-04
-3.89139861e-03
-2.85583460e-05
-3.18915508e-03
-1.27909824e-04
-7.52254862e-03
1.43674771e-04
-6.99737308e-03
-1.00347408e-04
-3.93275826e-03
1.30228863e-06
-3.38034025e-03
3.51995621e-05
-3.39954743e-03
1.65914728e-05
-3.39954743e-03
3.51995621e-05
-8.62131943e-03
6.85928026e-05
-3.85416372e-03
-1.89587197e-04
-6.14506679e-03
2.80076888e-04
-2.60092554e-04
-3.31214361e-05
-3.82326095e-03
9.39673128e-06
-3.38967932e-03
8.92335750e-05
-7.96590836e-03
-2.01355487e-05
-3.40973719e-03
2.80380305e-05
-2.66390656e-03
1.01556375e-04
-8.96095533e-03
-1.55559564e-04
-3.94295987e-03
1.28559953e-05
-2.64476514e-03
2.09976922e-04
-6.08104978e-03
-1.41352273e-04
-3.83977014e-03
3.16344063e-05
-1.59963571e-03
2.16799184e-04
-7.07015789e-03
-8.79962395e-05
-3.83326931e-03
2.04049479e-05
-2.65431443e-03
1.55729681e-04
-7.67784696e-03
-2.55087090e-04
-5.89150466e-03
2.14261906e-04
-3.88532567e-03
-4.76947869e-05
-1.21342031e-03
-1.36593453e-04
-8.72583322e-03
9.70529876e-05
-3.68007061e-03
-4.55251977e-05
-2.34869986e-03
1.07997500e-04
-1.05790988e-02
-6.53786599e-06
-2.68149153e-03
5.04833315e-05
-1.62010074e-03
-2.08795306e-04
-3.94957381e-03
2.47090923e-05
-1.58896512e-03
2.70960703e-04
-4.84503361e-03
-3.76676010e-05
-2.35894862e-03
-1.91724752e-04
-6.86633749e-03
1.65067979e-04
-3.88569291e-03
-2.00065062e-04
-8.38133908e-03
1.48950014e-04
-3.67765898e-03
-5.57236889e-05
-1.20431503e-03
7.93600510e-05
-2.79754583e-04
1.78384102e-04
-1.09174795e-02
-5.33556571e-05
-2.69121876e-03
2.28955615e-04
-8.68765853e-03
-1.21540142e-04
-3.42812966e-03
7.25459607e-05
-2.70401540e-04
-5.27116370e-05
-2.33781249e-03
-8.26098793e-05
-1.02710777e-02
2.93592069e-05
-3.16074671e-03
-4.43955781e-05
-3.16809870e-03
-1.78328956e-05
-9.67135699e-03
-1.78328956e-05
-3.16809870e-03
2.09976922e-04
-2.64476514e-03
1.28559953e-05
-3.94295987e-03
-1.55559564e-04
-6.08104978e-03
-6.31270445e-05
-1.19431811e-03
-1.44472873e-04
-1.05588746e-02
8.46286453e-05
-3.15789523e-03
-7.02325334e-05
-2.32735979e-03
2.31213549e-05
-1.24218422e-02
-9.56109960e-05
-1.18678202e-03
8.54795613e-05
-2.86668465e-04
1.29149627e-04
-1.28297586e-02
9.50473565e-06
-1.63590595e-03
-7.02325334e-05
-1.18678202e-03
-9.56109960e-05
-1.24218422e-02
2.31213549e-05
-2.32735979e-03
-3.37227763e-05
-2.33115348e-03
-6.10594514e-05
-2.33115348e-03
-3.37227763e-05
-1.15038798e-02
-3.76936334e-05
-1.39726902e-02
-3.76936334e-05
-1.18273839e-03
-7.99461371e-05
-1.18273839e-03
1.78384102e-04
-2.79754583e-04
7.93600510e-05
-2.69121876e-03
-5.33556571e-05
-1.09174795e-02
-6.31270445e-05
-3.15789523e-03
8.46286453e-05
-1.05588746e-02
-1.44472873e-04
-1.19431811e-03
4.70710910e-05
-9.93048449e-03
4.70710910e-05
-2.67427501e-03
3.84236365e-05
-2.67427501e-03
-7.29398887e-05
-3.17907243e-03
-3.65770532e-05
-3.68670464e-03
4.99053732e-05
-8.75338898e-03
5.64193762e-05
-1.18609110e-02
5.64193762e-05
-1.62812485e-03
6.10051155e-05
-1.62812485e-03
-8.26098793e-05
-2.33781249e-03
-5.27116370e-05
-3.16074671e-03
2.93592069e-05
-1.02710777e-02
1.62452424e-04
-1.61031767e-03
3.89532102e-05
-3.41644066e-03
-7.30310819e-05
-8.98209435e-03
2.80380305e-05
-3.40973719e-03
-2.01355487e-05
-8.96095533e-03
1.01556375e-04
-2.66390656e-03
-6.53786599e-06
-1.05790988e-02
1.07997500e-04
-1.62010074e-03
5.04833315e-05
-2.68149153e-03
-1.36593453e-04
-2.34869986e-03
-4.55251977e-05
-3.68007061e-03
9.70529876e-05
-8.72583322e-03
7.25459607e-05
-3.42812966e-03
-1.21540142e-04
-8.68765853e-03
2.28955615e-04
-2.70401540e-04
2.16799184e-04
-1.59963571e-03
3.16344063e-05
-3.83977014e-03
-1.41352273e-04
-7.07015789e-03
1.48950014e-04
-8.38133908e-03
-2.00065062e-04
-1.20431503e-03
-5.57236889e-05
-3.67765898e-03
-1.82385613e-04
-3.19866691e-03
-2.09987710e-05
-3.78107719e-03
1.84919549e-04
-5.97783728e-03
3.31211011e-04
-2.49524380e-04
6.55802005e-05
-3.96799962e-03
-2.57040002e-04
-3.28950019e-03
-1.13359423e-05
-2.61756789e-03
3.66322866e-04
5.95483150e-04
-3.54934450e-04
-2.38883680e-03
3.82218017e-04
-2.39032703e-04
6.19396031e-05
-3.76686725e-03
-3.24643912e-04
-1.19243048e-04
-2.45769409e-04
-2.36852956e-03
-2.99985956e-05
-3.77655051e-03
2.32395358e-04
-4.69329926e-03
-2.23569769e-04
-4.17099142e-03
2.65654565e-04
-2.63455358e-03
4.94452932e-06
-3.73772445e-03
-2.08795306e-04
-4.84503361e-03
2.70960703e-04
-1.58896512e-03
2.47090923e-05
-3.94957381e-03
-2.76347325e-04
-2.30603866e-03
3.25586656e-04
-1.57810252e-03
1.70510528e-05
-3.74459366e-03
-1.91724752e-04
-2.35894862e-03
-3.76676010e-05
-3.88569291e-03
1.65067979e-04
-6.86633749e-03
2.04049479e-05
-3.83326931e-03
-8.79962395e-05
-7.67784696e-03
1.55729681e-04
-2.65431443e-03
7.96581916e-06
-3.91381098e-03
-1.32658717e-05
-3.91381098e-03
7.96581916e-06
-7.88699008e-03
-5.67091843e-06
-3.80400457e-03
7.53422772e-05
-7.59858665e-03
-4.62754225e-05
-3.92322545e-03
-5.67091843e-06
-3.80400457e-03
7.53422772e-05
-7.59858665e-03
-4.62754225e-05
-3.92322545e-03
1.43674771e-04
-3.38034025e-03
1.30228863e-06
-3.93275826e-03
-1.00347408e-04
-6.99737308e-03
-1.13906192e-04
-3.71817217e-03
-1.36259791e-05
-3.79347133e-03
1.30525593e-04
-6.94505883e-03
-5.67091843e-06
-3.92322545e-03
-4.62754225e-05
-7.59858665e-03
7.53422772e-05
-3.80400457e-03
3.19796302e-04
-1.94756325e-03
-2.92468555e-04
-3.21861524e-03
-1.72744875e-06
-2.62205264e-03
2.53839738e-04
-4.12042884e-03
-2.36915990e-04
-3.20832076e-03
-1.40874077e-05
-3.35751077e-03
-1.27909824e-04
-3.18915508e-03
-2.85583460e-05
-3.89139861e-03
1.17611151e-04
-7.52254862e-03
9.39673128e-06
-3.82326095e-03
-3.31214361e-05
-7.96590836e-03
8.92335750e-05
-3.38967932e-03
1.28559953e-05
-2.64476514e-03
2.09976922e-04
-6.08104978e-03
-1.55559564e-04
-3.94295987e-03
-2.08795306e-04
-3.94957381e-03
2.47090923e-05
-1.58896512e-03
2.70960703e-04
-4.84503361e-03
3.82218017e-04
-1.19243048e-04
-3.24643912e-04
-3.76686725e-03
6.19396031e-05
-2.39032703e-04
-2.99985956e-05
-2.36852956e-03
-2.45769409e-04
-4.69329926e-03
2.32395358e-04
-3.77655051e-03
-1.68181313e-04
-3.72759998e-03
-6.80127686e-06
-3.36991977e-03
1.99105208e-04
-5.71550326e-03
-1.36259791e-05
-3.71817217e-03
-1.13906192e-04
-6.94505883e-03
1.30525593e-04
-3.79347133e-03
-2.99912066e-04
-2.20644890e-03
3.00038546e-04
-3.35316297e-03
-2.31035644e-05
-2.37860893e-03
5.74904572e-05
-2.29559621e-04
4.31330281e-04
3.36830051e-03
-3.93443752e-04
-3.24930673e-03
-9.70270916e-06
-1.56970170e-03
4.67362739e-04
7.21526545e-03
-4.73689424e-04
-1.24499193e-03
-3.54934450e-04
5.95483150e-04
3.66322866e-04
-2.61756789e-03
-1.13359423e-05
-2.38883680e-03
-4.19893184e-04
3.46564381e-03
4.06332977e-04
-2.61654813e-03
-2.44959246e-05
-1.24109600e-03
4.78844751e-04
-2.22856378e-04
5.15960354e-05
-2.41760033e-03
-4.59885081e-04
7.16950348e-03
-2.92468555e-04
-1.94756325e-03
3.19796302e-04
-2.62205264e-03
-1.72744875e-06
-3.21861524e-03
-2.44959246e-05
-2.61654813e-03
4.06332977e-04
3.46564381e-03
-4.19893184e-04
-1.24109600e-03
4.68713430e-07
-1.56106690e-03
4.24895667e-04
3.71784240e-03
-4.07592028e-04
-2.39437901e-03
-5.22858435e-04
-1.27722226e-03
4.85059435e-05
-2.11176458e-04
5.00411502e-04
1.12954237e-02
-4.07592028e-04
3.71784240e-03
4.24895667e-04
-1.56106690e-03
4.68713430e-07
-2.39437901e-03
-4.73689424e-04
7.21526545e-03
4.67362739e-04
-1.56970170e-03
-9.70270916e-06
-1.24499193e-03
5.00411502e-04
-2.11176458e-04
4.85059435e-05
-1.27722226e-03
-5.22858435e-04
1.12954237e-02
 
