# vtk DataFile Version 3.0 
Date: 5/2/2016   Time: 21:25
ASCII 
DATASET UNSTRUCTURED_GRID 
 
POINTS 512 float 
1.000000 0.000000 0.000000 
1.000000 0.080221 0.000000 
1.000000 0.160441 0.000000 
0.966941 0.155668 0.000000 
0.933882 0.150896 0.000000 
0.942203 0.075448 0.000000 
0.950524 0.000000 0.000000 
0.975262 0.000000 0.000000 
1.000000 0.160441 0.000000 
1.000000 0.393069 0.000000 
1.000000 0.625698 0.000000 
0.967703 0.537498 0.000000 
0.935406 0.449299 0.000000 
0.934644 0.300098 0.000000 
0.933882 0.150896 0.000000 
0.966941 0.155668 0.000000 
1.000000 0.625698 0.000000 
1.000000 0.660959 0.000000 
1.000000 0.696219 0.000000 
0.969478 0.670855 0.000000 
0.938956 0.645490 0.000000 
0.937181 0.547395 0.000000 
0.935406 0.449299 0.000000 
0.967703 0.537498 0.000000 
1.000000 0.696219 0.000000 
1.000000 0.744380 0.000000 
1.000000 0.792541 0.000000 
0.970563 0.764327 0.000000 
0.941126 0.736113 0.000000 
0.940041 0.690802 0.000000 
0.938956 0.645490 0.000000 
0.969478 0.670855 0.000000 
1.000000 0.792541 0.000000 
1.000000 0.800485 0.000000 
1.000000 0.808429 0.000000 
0.953354 0.785374 0.000000 
0.906709 0.762320 0.000000 
0.923917 0.749216 0.000000 
0.941126 0.736113 0.000000 
0.970563 0.764327 0.000000 
1.000000 0.808429 0.000000 
1.000000 0.827440 0.000000 
1.000000 0.846451 0.000000 
0.939477 0.851819 0.000000 
0.878954 0.857187 0.000000 
0.892832 0.809754 0.000000 
0.906709 0.762320 0.000000 
0.953354 0.785374 0.000000 
1.000000 0.846451 0.000000 
1.000000 0.872240 0.000000 
1.000000 0.898030 0.000000 
0.867185 0.927217 0.000000 
0.734371 0.956404 0.000000 
0.806663 0.906796 0.000000 
0.878954 0.857187 0.000000 
0.939477 0.851819 0.000000 
1.000000 0.898030 0.000000 
1.000000 0.949015 0.000000 
1.000000 1.000000 0.000000 
0.904705 1.000000 0.000000 
0.809411 1.000000 0.000000 
0.771891 0.978202 0.000000 
0.734371 0.956404 0.000000 
0.867185 0.927217 0.000000 
0.950524 0.000000 0.000000 
0.942203 0.075448 0.000000 
0.933882 0.150896 0.000000 
0.878210 0.141512 0.000000 
0.822538 0.132127 0.000000 
0.799459 0.066063 0.000000 
0.776379 0.000000 0.000000 
0.863452 0.000000 0.000000 
0.933882 0.150896 0.000000 
0.934644 0.300098 0.000000 
0.935406 0.449299 0.000000 
0.912961 0.388005 0.000000 
0.890516 0.326711 0.000000 
0.856527 0.229419 0.000000 
0.822538 0.132127 0.000000 
0.878210 0.141512 0.000000 
0.935406 0.449299 0.000000 
0.937181 0.547395 0.000000 
0.938956 0.645490 0.000000 
0.912161 0.533697 0.000000 
0.885366 0.421905 0.000000 
0.887941 0.374308 0.000000 
0.890516 0.326711 0.000000 
0.912961 0.388005 0.000000 
0.938956 0.645490 0.000000 
0.940041 0.690802 0.000000 
0.941126 0.736113 0.000000 
0.906540 0.702964 0.000000 
0.871955 0.669816 0.000000 
0.878661 0.545860 0.000000 
0.885366 0.421905 0.000000 
0.912161 0.533697 0.000000 
0.941126 0.736113 0.000000 
0.923917 0.749216 0.000000 
0.906709 0.762320 0.000000 
0.826585 0.781956 0.000000 
0.746460 0.801591 0.000000 
0.809208 0.735704 0.000000 
0.871955 0.669816 0.000000 
0.906540 0.702964 0.000000 
0.906709 0.762320 0.000000 
0.892832 0.809754 0.000000 
0.878954 0.857187 0.000000 
0.777680 0.866170 0.000000 
0.676406 0.875152 0.000000 
0.711433 0.838372 0.000000 
0.746460 0.801591 0.000000 
0.826585 0.781956 0.000000 
0.878954 0.857187 0.000000 
0.806663 0.906796 0.000000 
0.734371 0.956404 0.000000 
0.700061 0.964942 0.000000 
0.665751 0.973479 0.000000 
0.671078 0.924316 0.000000 
0.676406 0.875152 0.000000 
0.777680 0.866170 0.000000 
0.734371 0.956404 0.000000 
0.771891 0.978202 0.000000 
0.809411 1.000000 0.000000 
0.736144 1.000000 0.000000 
0.662877 1.000000 0.000000 
0.664314 0.986739 0.000000 
0.665751 0.973479 0.000000 
0.700061 0.964942 0.000000 
0.776379 0.000000 0.000000 
0.799459 0.066063 0.000000 
0.822538 0.132127 0.000000 
0.771515 0.127270 0.000000 
0.720492 0.122413 0.000000 
0.725706 0.061206 0.000000 
0.730920 0.000000 0.000000 
0.753650 0.000000 0.000000 
0.822538 0.132127 0.000000 
0.856527 0.229419 0.000000 
0.890516 0.326711 0.000000 
0.817821 0.323481 0.000000 
0.745127 0.320251 0.000000 
0.732810 0.221332 0.000000 
0.720492 0.122413 0.000000 
0.771515 0.127270 0.000000 
0.890516 0.326711 0.000000 
0.887941 0.374308 0.000000 
0.885366 0.421905 0.000000 
0.852303 0.403485 0.000000 
0.819241 0.385065 0.000000 
0.782184 0.352658 0.000000 
0.745127 0.320251 0.000000 
0.817821 0.323481 0.000000 
0.885366 0.421905 0.000000 
0.878661 0.545860 0.000000 
0.871955 0.669816 0.000000 
0.849340 0.648140 0.000000 
0.826724 0.626464 0.000000 
0.822982 0.505764 0.000000 
0.819241 0.385065 0.000000 
0.852303 0.403485 0.000000 
0.871955 0.669816 0.000000 
0.809208 0.735704 0.000000 
0.746460 0.801591 0.000000 
0.721275 0.718855 0.000000 
0.696089 0.636119 0.000000 
0.761406 0.631292 0.000000 
0.826724 0.626464 0.000000 
0.849340 0.648140 0.000000 
0.746460 0.801591 0.000000 
0.711433 0.838372 0.000000 
0.676406 0.875152 0.000000 
0.655986 0.803413 0.000000 
0.635565 0.731674 0.000000 
0.665827 0.683897 0.000000 
0.696089 0.636119 0.000000 
0.721275 0.718855 0.000000 
0.676406 0.875152 0.000000 
0.671078 0.924316 0.000000 
0.665751 0.973479 0.000000 
0.613871 0.903801 0.000000 
0.561991 0.834122 0.000000 
0.598778 0.782898 0.000000 
0.635565 0.731674 0.000000 
0.655986 0.803413 0.000000 
0.665751 0.973479 0.000000 
0.664314 0.986739 0.000000 
0.662877 1.000000 0.000000 
0.608032 1.000000 0.000000 
0.553186 1.000000 0.000000 
0.557589 0.917061 0.000000 
0.561991 0.834122 0.000000 
0.613871 0.903801 0.000000 
0.730920 0.000000 0.000000 
0.725706 0.061206 0.000000 
0.720492 0.122413 0.000000 
0.703614 0.159185 0.000000 
0.686736 0.195956 0.000000 
0.697534 0.097978 0.000000 
0.708332 0.000000 0.000000 
0.719626 0.000000 0.000000 
0.720492 0.122413 0.000000 
0.732810 0.221332 0.000000 
0.745127 0.320251 0.000000 
0.709258 0.318657 0.000000 
0.673389 0.317063 0.000000 
0.680063 0.256510 0.000000 
0.686736 0.195956 0.000000 
0.703614 0.159185 0.000000 
0.745127 0.320251 0.000000 
0.782184 0.352658 0.000000 
0.819241 0.385065 0.000000 
0.740636 0.402588 0.000000 
0.662032 0.420111 0.000000 
0.667710 0.368587 0.000000 
0.673389 0.317063 0.000000 
0.709258 0.318657 0.000000 
0.819241 0.385065 0.000000 
0.822982 0.505764 0.000000 
0.826724 0.626464 0.000000 
0.741961 0.545222 0.000000 
0.657197 0.463981 0.000000 
0.659614 0.442046 0.000000 
0.662032 0.420111 0.000000 
0.740636 0.402588 0.000000 
0.826724 0.626464 0.000000 
0.761406 0.631292 0.000000 
0.696089 0.636119 0.000000 
0.664905 0.580151 0.000000 
0.633722 0.524183 0.000000 
0.645460 0.494082 0.000000 
0.657197 0.463981 0.000000 
0.741961 0.545222 0.000000 
0.696089 0.636119 0.000000 
0.665827 0.683897 0.000000 
0.635565 0.731674 0.000000 
0.618106 0.670338 0.000000 
0.600647 0.609002 0.000000 
0.617185 0.566593 0.000000 
0.633722 0.524183 0.000000 
0.664905 0.580151 0.000000 
0.635565 0.731674 0.000000 
0.598778 0.782898 0.000000 
0.561991 0.834122 0.000000 
0.560021 0.776180 0.000000 
0.558051 0.718238 0.000000 
0.579349 0.663620 0.000000 
0.600647 0.609002 0.000000 
0.618106 0.670338 0.000000 
0.561991 0.834122 0.000000 
0.557589 0.917061 0.000000 
0.553186 1.000000 0.000000 
0.500682 1.000000 0.000000 
0.448179 1.000000 0.000000 
0.503115 0.859119 0.000000 
0.558051 0.718238 0.000000 
0.560021 0.776180 0.000000 
0.708332 0.000000 0.000000 
0.697534 0.097978 0.000000 
0.686736 0.195956 0.000000 
0.635244 0.141595 0.000000 
0.583753 0.087234 0.000000 
0.489919 0.043617 0.000000 
0.396085 0.000000 0.000000 
0.552208 0.000000 0.000000 
0.686736 0.195956 0.000000 
0.680063 0.256510 0.000000 
0.673389 0.317063 0.000000 
0.637020 0.285565 0.000000 
0.600652 0.254066 0.000000 
0.592202 0.170650 0.000000 
0.583753 0.087234 0.000000 
0.635244 0.141595 0.000000 
0.673389 0.317063 0.000000 
0.667710 0.368587 0.000000 
0.662032 0.420111 0.000000 
0.536002 0.449243 0.000000 
0.409972 0.478375 0.000000 
0.505312 0.366221 0.000000 
0.600652 0.254066 0.000000 
0.637020 0.285565 0.000000 
0.662032 0.420111 0.000000 
0.659614 0.442046 0.000000 
0.657197 0.463981 0.000000 
0.544131 0.493538 0.000000 
0.431065 0.523096 0.000000 
0.420519 0.500736 0.000000 
0.409972 0.478375 0.000000 
0.536002 0.449243 0.000000 
0.657197 0.463981 0.000000 
0.645460 0.494082 0.000000 
0.633722 0.524183 0.000000 
0.568614 0.553847 0.000000 
0.503506 0.583511 0.000000 
0.467286 0.553303 0.000000 
0.431065 0.523096 0.000000 
0.544131 0.493538 0.000000 
0.633722 0.524183 0.000000 
0.617185 0.566593 0.000000 
0.600647 0.609002 0.000000 
0.568078 0.634856 0.000000 
0.535508 0.660709 0.000000 
0.519507 0.622110 0.000000 
0.503506 0.583511 0.000000 
0.568614 0.553847 0.000000 
0.600647 0.609002 0.000000 
0.579349 0.663620 0.000000 
0.558051 0.718238 0.000000 
0.535672 0.733755 0.000000 
0.513293 0.749272 0.000000 
0.524401 0.704991 0.000000 
0.535508 0.660709 0.000000 
0.568078 0.634856 0.000000 
0.558051 0.718238 0.000000 
0.503115 0.859119 0.000000 
0.448179 1.000000 0.000000 
0.432978 1.000000 0.000000 
0.417777 1.000000 0.000000 
0.465535 0.874636 0.000000 
0.513293 0.749272 0.000000 
0.535672 0.733755 0.000000 
0.396085 0.000000 0.000000 
0.489919 0.043617 0.000000 
0.583753 0.087234 0.000000 
0.475158 0.079908 0.000000 
0.366564 0.072582 0.000000 
0.318123 0.036291 0.000000 
0.269682 0.000000 0.000000 
0.332884 0.000000 0.000000 
0.583753 0.087234 0.000000 
0.592202 0.170650 0.000000 
0.600652 0.254066 0.000000 
0.574531 0.231443 0.000000 
0.548411 0.208820 0.000000 
0.457487 0.140701 0.000000 
0.366564 0.072582 0.000000 
0.475158 0.079908 0.000000 
0.600652 0.254066 0.000000 
0.505312 0.366221 0.000000 
0.409972 0.478375 0.000000 
0.442022 0.391361 0.000000 
0.474073 0.304346 0.000000 
0.511242 0.256583 0.000000 
0.548411 0.208820 0.000000 
0.574531 0.231443 0.000000 
0.409972 0.478375 0.000000 
0.420519 0.500736 0.000000 
0.431065 0.523096 0.000000 
0.351212 0.543971 0.000000 
0.271358 0.564846 0.000000 
0.372715 0.434596 0.000000 
0.474073 0.304346 0.000000 
0.442022 0.391361 0.000000 
0.431065 0.523096 0.000000 
0.467286 0.553303 0.000000 
0.503506 0.583511 0.000000 
0.417970 0.629020 0.000000 
0.332434 0.674528 0.000000 
0.301896 0.619687 0.000000 
0.271358 0.564846 0.000000 
0.351212 0.543971 0.000000 
0.503506 0.583511 0.000000 
0.519507 0.622110 0.000000 
0.535508 0.660709 0.000000 
0.462426 0.718721 0.000000 
0.389345 0.776733 0.000000 
0.360889 0.725631 0.000000 
0.332434 0.674528 0.000000 
0.417970 0.629020 0.000000 
0.535508 0.660709 0.000000 
0.524401 0.704991 0.000000 
0.513293 0.749272 0.000000 
0.431644 0.813226 0.000000 
0.349994 0.877179 0.000000 
0.369669 0.826956 0.000000 
0.389345 0.776733 0.000000 
0.462426 0.718721 0.000000 
0.513293 0.749272 0.000000 
0.465535 0.874636 0.000000 
0.417777 1.000000 0.000000 
0.359827 1.000000 0.000000 
0.301877 1.000000 0.000000 
0.325936 0.938589 0.000000 
0.349994 0.877179 0.000000 
0.431644 0.813226 0.000000 
0.269682 0.000000 0.000000 
0.318123 0.036291 0.000000 
0.366564 0.072582 0.000000 
0.329608 0.101886 0.000000 
0.292653 0.131190 0.000000 
0.174227 0.065595 0.000000 
0.055801 0.000000 0.000000 
0.162742 0.000000 0.000000 
0.366564 0.072582 0.000000 
0.457487 0.140701 0.000000 
0.548411 0.208820 0.000000 
0.375319 0.255339 0.000000 
0.202228 0.301858 0.000000 
0.247441 0.216524 0.000000 
0.292653 0.131190 0.000000 
0.329608 0.101886 0.000000 
0.548411 0.208820 0.000000 
0.511242 0.256583 0.000000 
0.474073 0.304346 0.000000 
0.319424 0.372571 0.000000 
0.164775 0.440795 0.000000 
0.183501 0.371327 0.000000 
0.202228 0.301858 0.000000 
0.375319 0.255339 0.000000 
0.474073 0.304346 0.000000 
0.372715 0.434596 0.000000 
0.271358 0.564846 0.000000 
0.175496 0.589905 0.000000 
0.079635 0.614965 0.000000 
0.122205 0.527880 0.000000 
0.164775 0.440795 0.000000 
0.319424 0.372571 0.000000 
0.271358 0.564846 0.000000 
0.301896 0.619687 0.000000 
0.332434 0.674528 0.000000 
0.279891 0.697925 0.000000 
0.227348 0.721323 0.000000 
0.153491 0.668144 0.000000 
0.079635 0.614965 0.000000 
0.175496 0.589905 0.000000 
0.332434 0.674528 0.000000 
0.360889 0.725631 0.000000 
0.389345 0.776733 0.000000 
0.331836 0.772662 0.000000 
0.274326 0.768590 0.000000 
0.250837 0.744957 0.000000 
0.227348 0.721323 0.000000 
0.279891 0.697925 0.000000 
0.389345 0.776733 0.000000 
0.369669 0.826956 0.000000 
0.349994 0.877179 0.000000 
0.309245 0.861069 0.000000 
0.268496 0.844959 0.000000 
0.271411 0.806774 0.000000 
0.274326 0.768590 0.000000 
0.331836 0.772662 0.000000 
0.349994 0.877179 0.000000 
0.325936 0.938589 0.000000 
0.301877 1.000000 0.000000 
0.265267 1.000000 0.000000 
0.228657 1.000000 0.000000 
0.248577 0.922480 0.000000 
0.268496 0.844959 0.000000 
0.309245 0.861069 0.000000 
0.055801 0.000000 0.000000 
0.174227 0.065595 0.000000 
0.292653 0.131190 0.000000 
0.146327 0.202942 0.000000 
0.000000 0.274694 0.000000 
0.000000 0.137347 0.000000 
0.000000 0.000000 0.000000 
0.027901 0.000000 0.000000 
0.292653 0.131190 0.000000 
0.247441 0.216524 0.000000 
0.202228 0.301858 0.000000 
0.101114 0.329033 0.000000 
0.000000 0.356208 0.000000 
0.000000 0.315451 0.000000 
0.000000 0.274694 0.000000 
0.146327 0.202942 0.000000 
0.202228 0.301858 0.000000 
0.183501 0.371327 0.000000 
0.164775 0.440795 0.000000 
0.082388 0.446195 0.000000 
0.000000 0.451596 0.000000 
0.000000 0.403902 0.000000 
0.000000 0.356208 0.000000 
0.101114 0.329033 0.000000 
0.164775 0.440795 0.000000 
0.122205 0.527880 0.000000 
0.079635 0.614965 0.000000 
0.039817 0.625374 0.000000 
0.000000 0.635783 0.000000 
0.000000 0.543689 0.000000 
0.000000 0.451596 0.000000 
0.082388 0.446195 0.000000 
0.079635 0.614965 0.000000 
0.153491 0.668144 0.000000 
0.227348 0.721323 0.000000 
0.113674 0.719144 0.000000 
0.000000 0.716965 0.000000 
0.000000 0.676374 0.000000 
0.000000 0.635783 0.000000 
0.039817 0.625374 0.000000 
0.227348 0.721323 0.000000 
0.250837 0.744957 0.000000 
0.274326 0.768590 0.000000 
0.137163 0.758880 0.000000 
0.000000 0.749170 0.000000 
0.000000 0.733067 0.000000 
0.000000 0.716965 0.000000 
0.113674 0.719144 0.000000 
0.274326 0.768590 0.000000 
0.271411 0.806774 0.000000 
0.268496 0.844959 0.000000 
0.134248 0.864596 0.000000 
0.000000 0.884233 0.000000 
0.000000 0.816701 0.000000 
0.000000 0.749170 0.000000 
0.137163 0.758880 0.000000 
0.268496 0.844959 0.000000 
0.248577 0.922480 0.000000 
0.228657 1.000000 0.000000 
0.114329 1.000000 0.000000 
0.000000 1.000000 0.000000 
0.000000 0.942117 0.000000 
0.000000 0.884233 0.000000 
0.134248 0.864596 0.000000 
CELLS 64 576 
 8 0 1 2 3 4 5 6 7  
 8 8 9 10 11 12 13 14 15  
 8 16 17 18 19 20 21 22 23  
 8 24 25 26 27 28 29 30 31  
 8 32 33 34 35 36 37 38 39  
 8 40 41 42 43 44 45 46 47  
 8 48 49 50 51 52 53 54 55  
 8 56 57 58 59 60 61 62 63  
 8 64 65 66 67 68 69 70 71  
 8 72 73 74 75 76 77 78 79  
 8 80 81 82 83 84 85 86 87  
 8 88 89 90 91 92 93 94 95  
 8 96 97 98 99 100 101 102 103  
 8 104 105 106 107 108 109 110 111  
 8 112 113 114 115 116 117 118 119  
 8 120 121 122 123 124 125 126 127  
 8 128 129 130 131 132 133 134 135  
 8 136 137 138 139 140 141 142 143  
 8 144 145 146 147 148 149 150 151  
 8 152 153 154 155 156 157 158 159  
 8 160 161 162 163 164 165 166 167  
 8 168 169 170 171 172 173 174 175  
 8 176 177 178 179 180 181 182 183  
 8 184 185 186 187 188 189 190 191  
 8 192 193 194 195 196 197 198 199  
 8 200 201 202 203 204 205 206 207  
 8 208 209 210 211 212 213 214 215  
 8 216 217 218 219 220 221 222 223  
 8 224 225 226 227 228 229 230 231  
 8 232 233 234 235 236 237 238 239  
 8 240 241 242 243 244 245 246 247  
 8 248 249 250 251 252 253 254 255  
 8 256 257 258 259 260 261 262 263  
 8 264 265 266 267 268 269 270 271  
 8 272 273 274 275 276 277 278 279  
 8 280 281 282 283 284 285 286 287  
 8 288 289 290 291 292 293 294 295  
 8 296 297 298 299 300 301 302 303  
 8 304 305 306 307 308 309 310 311  
 8 312 313 314 315 316 317 318 319  
 8 320 321 322 323 324 325 326 327  
 8 328 329 330 331 332 333 334 335  
 8 336 337 338 339 340 341 342 343  
 8 344 345 346 347 348 349 350 351  
 8 352 353 354 355 356 357 358 359  
 8 360 361 362 363 364 365 366 367  
 8 368 369 370 371 372 373 374 375  
 8 376 377 378 379 380 381 382 383  
 8 384 385 386 387 388 389 390 391  
 8 392 393 394 395 396 397 398 399  
 8 400 401 402 403 404 405 406 407  
 8 408 409 410 411 412 413 414 415  
 8 416 417 418 419 420 421 422 423  
 8 424 425 426 427 428 429 430 431  
 8 432 433 434 435 436 437 438 439  
 8 440 441 442 443 444 445 446 447  
 8 448 449 450 451 452 453 454 455  
 8 456 457 458 459 460 461 462 463  
 8 464 465 466 467 468 469 470 471  
 8 472 473 474 475 476 477 478 479  
 8 480 481 482 483 484 485 486 487  
 8 488 489 490 491 492 493 494 495  
 8 496 497 498 499 500 501 502 503  
 8 504 505 506 507 508 509 510 511  
 
CELL_TYPES 64
7
7
7
7
7
7
7
7
7
7
7
7
7
7
7
7
7
7
7
7
7
7
7
7
7
7
7
7
7
7
7
7
7
7
7
7
7
7
7
7
7
7
7
7
7
7
7
7
7
7
7
7
7
7
7
7
7
7
7
7
7
7
7
7
CELL_DATA 64
FIELD FieldData 1
material 1 64 int
1
1
1
1
1
1
1
1
1
1
1
1
1
1
1
1
1
1
1
1
1
1
1
1
1
1
1
1
1
1
1
1
1
1
1
1
1
1
1
1
1
1
1
1
1
1
1
1
1
1
1
1
1
1
1
1
1
1
1
1
1
1
1
1
POINT_DATA 512 SCALARS flux double 
LOOKUP_TABLE   default 
-2.44977864e-05
-4.47532544e-04
8.89403405e-05
-1.66322180e-03
-5.16562509e-05
1.37667716e-03
1.99204944e-04
2.88529345e-05
1.79014844e-03
-4.68732784e-03
2.16922832e-03
-7.80970854e-03
1.23328357e-03
-1.06607541e-02
2.17188063e-03
-5.61807040e-03
2.08312216e-03
-1.94667815e-03
7.56803169e-04
1.28462026e-03
-5.27211961e-04
-3.01921984e-03
-8.47995244e-04
-2.65745854e-03
2.39129925e-04
-2.49444004e-04
1.54226528e-04
1.13452394e-03
1.28892706e-05
-4.96195707e-04
-1.41393782e-04
8.21613854e-04
3.13455817e-04
-4.84191697e-04
2.40877745e-04
9.68353032e-04
-7.20214344e-05
-1.30875552e-03
-2.31739195e-05
1.26402172e-03
2.33840657e-04
-2.22704191e-05
-2.72964772e-04
-3.98202813e-03
1.08693337e-04
-3.57885821e-03
3.50882753e-05
1.12833551e-03
-7.00306549e-04
-1.13823020e-03
-2.16581220e-04
-2.45749644e-02
1.55265815e-03
-1.81864751e-02
4.79337862e-04
-4.74107581e-03
-2.20724859e-04
-9.46002838e-04
5.20017807e-04
-9.98335244e-04
3.04868971e-04
1.71868414e-03
1.06615342e-03
-2.41571117e-02
9.52157684e-04
-1.03871788e-03
5.27690261e-04
-5.71583067e-03
6.47547683e-04
-1.10237720e-02
7.08873402e-04
-1.93041159e-03
2.59450305e-04
-9.62156583e-03
6.11508194e-04
-4.26575012e-03
6.63092499e-05
-1.71031810e-02
-1.80324974e-05
-5.49842747e-03
5.90358820e-04
-4.54194279e-03
8.78070231e-04
-7.54396724e-03
-3.84178715e-04
-2.16929895e-03
-2.65576948e-04
-4.05599926e-03
1.21833683e-03
-1.72126330e-03
3.00775754e-04
6.99511241e-04
-3.88879936e-04
-1.05413317e-02
-1.37471284e-04
-7.01311575e-03
4.33687532e-04
-1.45559950e-03
1.04652982e-05
-1.08080094e-02
-2.39412116e-05
-1.64145017e-02
7.27447298e-05
-5.82786292e-05
3.52694328e-04
-4.31352047e-03
2.30176045e-04
-1.05605741e-02
2.65031256e-04
-5.78264052e-03
1.50133462e-04
-1.09099420e-02
-4.26386734e-04
-1.61059665e-02
7.45047169e-04
-9.71433378e-04
-1.67997253e-04
-2.54896828e-03
-4.02113106e-04
-9.00537554e-03
1.59064462e-04
1.67449871e-03
1.91303484e-04
-1.52108243e-04
1.38529724e-04
-1.38815377e-03
-3.66553886e-04
-9.55497134e-04
-1.90123204e-05
-9.48004303e-03
-2.21055119e-04
-1.93046595e-03
-3.65008808e-04
-3.70585688e-03
1.29460422e-04
2.25889050e-04
-6.73732135e-04
-1.61751202e-02
1.47359851e-05
-6.58191805e-03
-3.57173293e-04
-1.30718532e-02
-4.20336934e-04
-2.26561581e-03
1.63493402e-05
-1.65310430e-03
1.31149287e-04
-2.57946683e-03
-5.79731825e-06
-4.35075043e-03
-5.89238692e-05
-7.51613536e-03
1.04127417e-04
-1.10280360e-02
-2.21727447e-04
-5.97909184e-04
1.88528051e-04
-1.27725721e-02
-1.37710379e-04
-1.97532148e-03
-5.74933664e-05
-1.55335321e-02
-2.19498339e-04
-5.88706765e-03
-6.56031318e-04
-5.91926676e-03
1.38294921e-04
1.00988169e-04
1.31803938e-04
-4.92377602e-03
5.90857075e-05
-5.75337643e-03
7.42628026e-05
-6.06114740e-03
-1.79534058e-04
-6.85570005e-03
1.39955357e-04
-3.78651505e-03
6.96315150e-04
-4.65291473e-03
-1.98180795e-04
-7.27418775e-03
1.27557894e-04
-6.29811170e-03
9.92101158e-04
-2.45784480e-03
5.24674535e-04
-1.51831788e-05
1.43126766e-04
-1.08746868e-02
-1.89152475e-04
-4.93201157e-03
-4.93940491e-06
-3.75419646e-03
-3.97827191e-04
-4.77407015e-04
6.59659906e-05
-1.11925808e-02
1.56867386e-04
4.59133602e-04
-1.83937451e-04
-1.38969139e-02
-6.03958035e-05
-1.72526770e-03
-2.62437529e-06
-4.43675440e-03
1.10787992e-04
-8.67897828e-04
-1.45409845e-05
-4.05948854e-03
9.92796995e-05
-8.76941464e-03
-2.69232533e-04
-3.10429167e-03
9.44750163e-05
-1.60392730e-03
6.68786474e-04
-1.46968969e-02
1.13147068e-03
-1.79744720e-02
-8.13209630e-04
-4.77972390e-03
-8.65148872e-05
-1.05901617e-02
7.75492964e-04
-6.35688503e-03
-1.29229706e-04
-4.81829797e-03
-4.12856965e-04
-1.20788248e-03
-7.59586821e-04
-1.69107472e-02
-1.61306080e-05
-5.38021466e-03
8.42488436e-05
-5.27025458e-03
-9.24264928e-05
-3.20525634e-03
-1.54615296e-04
-5.08287071e-03
1.34014548e-04
-6.77745782e-03
2.73952614e-05
-5.12806543e-03
-1.87304342e-04
-5.48529839e-03
-8.76857663e-05
-5.40409164e-03
-4.00322338e-04
-1.06123058e-02
2.52496808e-04
-9.25086807e-04
7.29890657e-04
-3.32457041e-02
-8.03806000e-04
-4.68130659e-03
6.35400059e-04
-1.33349483e-02
3.18329067e-04
-9.12460477e-03
-1.63379082e-03
-3.68362375e-03
7.17525733e-04
-1.72611107e-03
6.74616552e-05
-4.77397002e-03
7.59892535e-06
-3.88315388e-03
-1.96574876e-04
-1.12064480e-02
2.40949895e-05
-9.82751936e-03
9.12036932e-04
-3.15339123e-03
-7.38997458e-04
-2.46769374e-02
-8.51912286e-04
-3.11970508e-02
3.48313749e-04
-3.37005155e-03
-5.22939046e-04
-1.99837175e-03
-3.65806270e-04
-2.08659627e-02
-1.96129171e-05
-1.09033755e-03
-1.38594351e-04
-2.51028175e-02
-3.22423118e-04
-1.60048074e-03
-1.17439450e-04
-7.87282564e-03
-1.05942630e-04
-3.49685921e-03
1.37275370e-04
-2.12508394e-02
-6.88125962e-05
-3.12221856e-03
9.94468376e-06
-2.65515618e-03
-2.06763960e-05
-2.66044364e-03
-8.38590815e-05
-7.97947075e-03
-2.94558933e-05
-5.43641487e-03
-1.09232961e-04
-1.46299756e-03
-4.31887822e-06
-3.48799033e-03
4.82083828e-05
-2.56715431e-03
-9.58615465e-04
-3.20862780e-02
3.01431758e-04
7.72356585e-04
1.95289140e-04
-2.38060811e-02
-7.31026890e-04
-1.47856125e-03
6.92209789e-05
-2.06028183e-03
-1.72385634e-03
-3.53447721e-03
-9.57191377e-04
2.21914714e-03
-2.28266794e-04
2.11195858e-03
1.04433414e-04
-1.28240829e-02
2.19695143e-04
-1.66982039e-03
-1.24513941e-03
-1.07158308e-02
1.02153314e-03
-6.25860726e-03
4.30375416e-04
-3.18937981e-02
-4.11491794e-04
-1.34637624e-02
-5.11885383e-04
-4.46713320e-03
4.36178191e-04
-1.50001076e-03
-1.03902184e-04
-2.56766704e-04
-9.15800810e-05
-1.00778882e-02
1.56072348e-04
-4.06121257e-02
-1.44347684e-03
-1.31242771e-02
8.49712982e-05
-3.78142773e-03
-3.18001000e-04
-1.28137742e-02
1.51916563e-04
-6.24385650e-03
-2.25799557e-04
-9.99953990e-03
-4.11041179e-04
-3.01804639e-03
-6.14147163e-04
-1.06034879e-02
1.80378665e-04
-5.47725398e-03
5.30158095e-06
-1.23022182e-02
-2.28091367e-04
-4.35841151e-03
-6.55389708e-04
-9.76470270e-03
4.11855291e-04
-2.91847939e-03
3.45970654e-04
-1.04092510e-02
-2.26719422e-03
-2.15231320e-02
-8.45754621e-04
2.67720771e-03
-1.87913300e-04
-1.13858983e-03
5.60573690e-04
-6.83686650e-03
1.11902930e-03
1.60907001e-04
-3.96632530e-04
-6.21483122e-03
-8.05084676e-04
1.65930300e-02
3.65603028e-03
-2.77798636e-03
1.13248006e-03
-9.05716594e-03
1.73358599e-04
-4.31860954e-02
-1.67791902e-03
-1.53509447e-02
6.52163654e-04
-2.53865875e-03
2.28988507e-03
-6.47606645e-03
6.05987788e-04
-4.76160970e-02
8.65005239e-04
-8.76929563e-03
-3.16424018e-04
-4.67833368e-02
-1.82350189e-03
-3.88813084e-02
-8.61900881e-04
-9.36782466e-03
-1.03753813e-04
-5.78917745e-03
-1.47565141e-03
-4.46626374e-02
-6.88886241e-04
-5.73647910e-03
-4.45568764e-04
-2.40384219e-03
-3.27102515e-04
-1.47643509e-02
1.36865680e-04
-1.17339815e-02
-1.87697146e-04
-6.12171370e-03
1.27416256e-04
-4.27002303e-03
8.04329938e-05
-2.09851261e-03
1.07725354e-04
-2.93612983e-03
-5.99161024e-05
-2.47403541e-03
-3.20996164e-04
-2.55403563e-03
-1.73505357e-04
-1.64312061e-03
-3.33097563e-05
-3.85103892e-03
-2.33758007e-04
-2.30361688e-03
2.10251947e-04
-2.14085371e-04
2.00147322e-04
-3.11851546e-03
-2.47146384e-04
-3.08166304e-03
6.19274033e-03
1.33527869e-02
4.99288988e-04
-5.54607702e-02
9.96733507e-05
-1.75774969e-03
3.04173181e-03
-1.66110521e-02
4.27735835e-04
-1.57476946e-02
-6.32561684e-04
-1.80919308e-02
-2.13001680e-04
1.11844647e-03
-6.67794135e-04
-5.20603350e-02
-5.73412800e-04
-5.44007813e-03
-2.87011346e-05
-9.93646460e-03
-3.26422992e-04
3.94158943e-04
-2.35219299e-04
-1.85198883e-02
-2.32131294e-04
-7.12527021e-03
1.08404076e-03
-2.66884517e-03
2.90869131e-04
-5.54926052e-04
7.01418869e-05
-1.09544250e-02
5.33350769e-04
-1.61517088e-02
3.99441009e-05
-1.72830109e-02
2.38138609e-04
-6.85250698e-04
3.22465901e-05
-2.57732123e-03
4.48981809e-05
-2.43249406e-03
1.42723592e-04
-2.50283040e-02
-6.41232656e-05
-2.22213448e-04
-9.73352590e-07
-1.65530425e-02
5.50813621e-04
-2.61803945e-03
-8.46647735e-04
-6.48458491e-03
1.53028602e-03
-2.54411141e-03
1.08663933e-03
-2.57654857e-02
-2.37133777e-03
3.88211620e-04
-1.17628678e-03
4.56278383e-04
-1.15362811e-03
2.44700814e-03
-5.06298333e-04
-3.84325749e-04
 
