# vtk DataFile Version 3.0 
Date: 5/2/2016   Time: 21:24
ASCII 
DATASET UNSTRUCTURED_GRID 
 
POINTS 512 float 
1.000000 0.000000 0.000000 
1.000000 0.080221 0.000000 
1.000000 0.160441 0.000000 
0.966941 0.155668 0.000000 
0.933882 0.150896 0.000000 
0.942203 0.075448 0.000000 
0.950524 0.000000 0.000000 
0.975262 0.000000 0.000000 
1.000000 0.160441 0.000000 
1.000000 0.393069 0.000000 
1.000000 0.625698 0.000000 
0.967703 0.537498 0.000000 
0.935406 0.449299 0.000000 
0.934644 0.300098 0.000000 
0.933882 0.150896 0.000000 
0.966941 0.155668 0.000000 
1.000000 0.625698 0.000000 
1.000000 0.660959 0.000000 
1.000000 0.696219 0.000000 
0.969478 0.670855 0.000000 
0.938956 0.645490 0.000000 
0.937181 0.547395 0.000000 
0.935406 0.449299 0.000000 
0.967703 0.537498 0.000000 
1.000000 0.696219 0.000000 
1.000000 0.744380 0.000000 
1.000000 0.792541 0.000000 
0.970563 0.764327 0.000000 
0.941126 0.736113 0.000000 
0.940041 0.690802 0.000000 
0.938956 0.645490 0.000000 
0.969478 0.670855 0.000000 
1.000000 0.792541 0.000000 
1.000000 0.800485 0.000000 
1.000000 0.808429 0.000000 
0.953354 0.785374 0.000000 
0.906709 0.762320 0.000000 
0.923917 0.749216 0.000000 
0.941126 0.736113 0.000000 
0.970563 0.764327 0.000000 
1.000000 0.808429 0.000000 
1.000000 0.827440 0.000000 
1.000000 0.846451 0.000000 
0.939477 0.851819 0.000000 
0.878954 0.857187 0.000000 
0.892832 0.809754 0.000000 
0.906709 0.762320 0.000000 
0.953354 0.785374 0.000000 
1.000000 0.846451 0.000000 
1.000000 0.872240 0.000000 
1.000000 0.898030 0.000000 
0.867185 0.927217 0.000000 
0.734371 0.956404 0.000000 
0.806663 0.906796 0.000000 
0.878954 0.857187 0.000000 
0.939477 0.851819 0.000000 
1.000000 0.898030 0.000000 
1.000000 0.949015 0.000000 
1.000000 1.000000 0.000000 
0.904705 1.000000 0.000000 
0.809411 1.000000 0.000000 
0.771891 0.978202 0.000000 
0.734371 0.956404 0.000000 
0.867185 0.927217 0.000000 
0.950524 0.000000 0.000000 
0.942203 0.075448 0.000000 
0.933882 0.150896 0.000000 
0.878210 0.141512 0.000000 
0.822538 0.132127 0.000000 
0.799459 0.066063 0.000000 
0.776379 0.000000 0.000000 
0.863452 0.000000 0.000000 
0.933882 0.150896 0.000000 
0.934644 0.300098 0.000000 
0.935406 0.449299 0.000000 
0.912961 0.388005 0.000000 
0.890516 0.326711 0.000000 
0.856527 0.229419 0.000000 
0.822538 0.132127 0.000000 
0.878210 0.141512 0.000000 
0.935406 0.449299 0.000000 
0.937181 0.547395 0.000000 
0.938956 0.645490 0.000000 
0.912161 0.533697 0.000000 
0.885366 0.421905 0.000000 
0.887941 0.374308 0.000000 
0.890516 0.326711 0.000000 
0.912961 0.388005 0.000000 
0.938956 0.645490 0.000000 
0.940041 0.690802 0.000000 
0.941126 0.736113 0.000000 
0.906540 0.702964 0.000000 
0.871955 0.669816 0.000000 
0.878661 0.545860 0.000000 
0.885366 0.421905 0.000000 
0.912161 0.533697 0.000000 
0.941126 0.736113 0.000000 
0.923917 0.749216 0.000000 
0.906709 0.762320 0.000000 
0.826585 0.781956 0.000000 
0.746460 0.801591 0.000000 
0.809208 0.735704 0.000000 
0.871955 0.669816 0.000000 
0.906540 0.702964 0.000000 
0.906709 0.762320 0.000000 
0.892832 0.809754 0.000000 
0.878954 0.857187 0.000000 
0.777680 0.866170 0.000000 
0.676406 0.875152 0.000000 
0.711433 0.838372 0.000000 
0.746460 0.801591 0.000000 
0.826585 0.781956 0.000000 
0.878954 0.857187 0.000000 
0.806663 0.906796 0.000000 
0.734371 0.956404 0.000000 
0.700061 0.964942 0.000000 
0.665751 0.973479 0.000000 
0.671078 0.924316 0.000000 
0.676406 0.875152 0.000000 
0.777680 0.866170 0.000000 
0.734371 0.956404 0.000000 
0.771891 0.978202 0.000000 
0.809411 1.000000 0.000000 
0.736144 1.000000 0.000000 
0.662877 1.000000 0.000000 
0.664314 0.986739 0.000000 
0.665751 0.973479 0.000000 
0.700061 0.964942 0.000000 
0.776379 0.000000 0.000000 
0.799459 0.066063 0.000000 
0.822538 0.132127 0.000000 
0.771515 0.127270 0.000000 
0.720492 0.122413 0.000000 
0.725706 0.061206 0.000000 
0.730920 0.000000 0.000000 
0.753650 0.000000 0.000000 
0.822538 0.132127 0.000000 
0.856527 0.229419 0.000000 
0.890516 0.326711 0.000000 
0.817821 0.323481 0.000000 
0.745127 0.320251 0.000000 
0.732810 0.221332 0.000000 
0.720492 0.122413 0.000000 
0.771515 0.127270 0.000000 
0.890516 0.326711 0.000000 
0.887941 0.374308 0.000000 
0.885366 0.421905 0.000000 
0.852303 0.403485 0.000000 
0.819241 0.385065 0.000000 
0.782184 0.352658 0.000000 
0.745127 0.320251 0.000000 
0.817821 0.323481 0.000000 
0.885366 0.421905 0.000000 
0.878661 0.545860 0.000000 
0.871955 0.669816 0.000000 
0.849340 0.648140 0.000000 
0.826724 0.626464 0.000000 
0.822982 0.505764 0.000000 
0.819241 0.385065 0.000000 
0.852303 0.403485 0.000000 
0.871955 0.669816 0.000000 
0.809208 0.735704 0.000000 
0.746460 0.801591 0.000000 
0.721275 0.718855 0.000000 
0.696089 0.636119 0.000000 
0.761406 0.631292 0.000000 
0.826724 0.626464 0.000000 
0.849340 0.648140 0.000000 
0.746460 0.801591 0.000000 
0.711433 0.838372 0.000000 
0.676406 0.875152 0.000000 
0.655986 0.803413 0.000000 
0.635565 0.731674 0.000000 
0.665827 0.683897 0.000000 
0.696089 0.636119 0.000000 
0.721275 0.718855 0.000000 
0.676406 0.875152 0.000000 
0.671078 0.924316 0.000000 
0.665751 0.973479 0.000000 
0.613871 0.903801 0.000000 
0.561991 0.834122 0.000000 
0.598778 0.782898 0.000000 
0.635565 0.731674 0.000000 
0.655986 0.803413 0.000000 
0.665751 0.973479 0.000000 
0.664314 0.986739 0.000000 
0.662877 1.000000 0.000000 
0.608032 1.000000 0.000000 
0.553186 1.000000 0.000000 
0.557589 0.917061 0.000000 
0.561991 0.834122 0.000000 
0.613871 0.903801 0.000000 
0.730920 0.000000 0.000000 
0.725706 0.061206 0.000000 
0.720492 0.122413 0.000000 
0.703614 0.159185 0.000000 
0.686736 0.195956 0.000000 
0.697534 0.097978 0.000000 
0.708332 0.000000 0.000000 
0.719626 0.000000 0.000000 
0.720492 0.122413 0.000000 
0.732810 0.221332 0.000000 
0.745127 0.320251 0.000000 
0.709258 0.318657 0.000000 
0.673389 0.317063 0.000000 
0.680063 0.256510 0.000000 
0.686736 0.195956 0.000000 
0.703614 0.159185 0.000000 
0.745127 0.320251 0.000000 
0.782184 0.352658 0.000000 
0.819241 0.385065 0.000000 
0.740636 0.402588 0.000000 
0.662032 0.420111 0.000000 
0.667710 0.368587 0.000000 
0.673389 0.317063 0.000000 
0.709258 0.318657 0.000000 
0.819241 0.385065 0.000000 
0.822982 0.505764 0.000000 
0.826724 0.626464 0.000000 
0.741961 0.545222 0.000000 
0.657197 0.463981 0.000000 
0.659614 0.442046 0.000000 
0.662032 0.420111 0.000000 
0.740636 0.402588 0.000000 
0.826724 0.626464 0.000000 
0.761406 0.631292 0.000000 
0.696089 0.636119 0.000000 
0.664905 0.580151 0.000000 
0.633722 0.524183 0.000000 
0.645460 0.494082 0.000000 
0.657197 0.463981 0.000000 
0.741961 0.545222 0.000000 
0.696089 0.636119 0.000000 
0.665827 0.683897 0.000000 
0.635565 0.731674 0.000000 
0.618106 0.670338 0.000000 
0.600647 0.609002 0.000000 
0.617185 0.566593 0.000000 
0.633722 0.524183 0.000000 
0.664905 0.580151 0.000000 
0.635565 0.731674 0.000000 
0.598778 0.782898 0.000000 
0.561991 0.834122 0.000000 
0.560021 0.776180 0.000000 
0.558051 0.718238 0.000000 
0.579349 0.663620 0.000000 
0.600647 0.609002 0.000000 
0.618106 0.670338 0.000000 
0.561991 0.834122 0.000000 
0.557589 0.917061 0.000000 
0.553186 1.000000 0.000000 
0.500682 1.000000 0.000000 
0.448179 1.000000 0.000000 
0.503115 0.859119 0.000000 
0.558051 0.718238 0.000000 
0.560021 0.776180 0.000000 
0.708332 0.000000 0.000000 
0.697534 0.097978 0.000000 
0.686736 0.195956 0.000000 
0.635244 0.141595 0.000000 
0.583753 0.087234 0.000000 
0.489919 0.043617 0.000000 
0.396085 0.000000 0.000000 
0.552208 0.000000 0.000000 
0.686736 0.195956 0.000000 
0.680063 0.256510 0.000000 
0.673389 0.317063 0.000000 
0.637020 0.285565 0.000000 
0.600652 0.254066 0.000000 
0.592202 0.170650 0.000000 
0.583753 0.087234 0.000000 
0.635244 0.141595 0.000000 
0.673389 0.317063 0.000000 
0.667710 0.368587 0.000000 
0.662032 0.420111 0.000000 
0.536002 0.449243 0.000000 
0.409972 0.478375 0.000000 
0.505312 0.366221 0.000000 
0.600652 0.254066 0.000000 
0.637020 0.285565 0.000000 
0.662032 0.420111 0.000000 
0.659614 0.442046 0.000000 
0.657197 0.463981 0.000000 
0.544131 0.493538 0.000000 
0.431065 0.523096 0.000000 
0.420519 0.500736 0.000000 
0.409972 0.478375 0.000000 
0.536002 0.449243 0.000000 
0.657197 0.463981 0.000000 
0.645460 0.494082 0.000000 
0.633722 0.524183 0.000000 
0.568614 0.553847 0.000000 
0.503506 0.583511 0.000000 
0.467286 0.553303 0.000000 
0.431065 0.523096 0.000000 
0.544131 0.493538 0.000000 
0.633722 0.524183 0.000000 
0.617185 0.566593 0.000000 
0.600647 0.609002 0.000000 
0.568078 0.634856 0.000000 
0.535508 0.660709 0.000000 
0.519507 0.622110 0.000000 
0.503506 0.583511 0.000000 
0.568614 0.553847 0.000000 
0.600647 0.609002 0.000000 
0.579349 0.663620 0.000000 
0.558051 0.718238 0.000000 
0.535672 0.733755 0.000000 
0.513293 0.749272 0.000000 
0.524401 0.704991 0.000000 
0.535508 0.660709 0.000000 
0.568078 0.634856 0.000000 
0.558051 0.718238 0.000000 
0.503115 0.859119 0.000000 
0.448179 1.000000 0.000000 
0.432978 1.000000 0.000000 
0.417777 1.000000 0.000000 
0.465535 0.874636 0.000000 
0.513293 0.749272 0.000000 
0.535672 0.733755 0.000000 
0.396085 0.000000 0.000000 
0.489919 0.043617 0.000000 
0.583753 0.087234 0.000000 
0.475158 0.079908 0.000000 
0.366564 0.072582 0.000000 
0.318123 0.036291 0.000000 
0.269682 0.000000 0.000000 
0.332884 0.000000 0.000000 
0.583753 0.087234 0.000000 
0.592202 0.170650 0.000000 
0.600652 0.254066 0.000000 
0.574531 0.231443 0.000000 
0.548411 0.208820 0.000000 
0.457487 0.140701 0.000000 
0.366564 0.072582 0.000000 
0.475158 0.079908 0.000000 
0.600652 0.254066 0.000000 
0.505312 0.366221 0.000000 
0.409972 0.478375 0.000000 
0.442022 0.391361 0.000000 
0.474073 0.304346 0.000000 
0.511242 0.256583 0.000000 
0.548411 0.208820 0.000000 
0.574531 0.231443 0.000000 
0.409972 0.478375 0.000000 
0.420519 0.500736 0.000000 
0.431065 0.523096 0.000000 
0.351212 0.543971 0.000000 
0.271358 0.564846 0.000000 
0.372715 0.434596 0.000000 
0.474073 0.304346 0.000000 
0.442022 0.391361 0.000000 
0.431065 0.523096 0.000000 
0.467286 0.553303 0.000000 
0.503506 0.583511 0.000000 
0.417970 0.629020 0.000000 
0.332434 0.674528 0.000000 
0.301896 0.619687 0.000000 
0.271358 0.564846 0.000000 
0.351212 0.543971 0.000000 
0.503506 0.583511 0.000000 
0.519507 0.622110 0.000000 
0.535508 0.660709 0.000000 
0.462426 0.718721 0.000000 
0.389345 0.776733 0.000000 
0.360889 0.725631 0.000000 
0.332434 0.674528 0.000000 
0.417970 0.629020 0.000000 
0.535508 0.660709 0.000000 
0.524401 0.704991 0.000000 
0.513293 0.749272 0.000000 
0.431644 0.813226 0.000000 
0.349994 0.877179 0.000000 
0.369669 0.826956 0.000000 
0.389345 0.776733 0.000000 
0.462426 0.718721 0.000000 
0.513293 0.749272 0.000000 
0.465535 0.874636 0.000000 
0.417777 1.000000 0.000000 
0.359827 1.000000 0.000000 
0.301877 1.000000 0.000000 
0.325936 0.938589 0.000000 
0.349994 0.877179 0.000000 
0.431644 0.813226 0.000000 
0.269682 0.000000 0.000000 
0.318123 0.036291 0.000000 
0.366564 0.072582 0.000000 
0.329608 0.101886 0.000000 
0.292653 0.131190 0.000000 
0.174227 0.065595 0.000000 
0.055801 0.000000 0.000000 
0.162742 0.000000 0.000000 
0.366564 0.072582 0.000000 
0.457487 0.140701 0.000000 
0.548411 0.208820 0.000000 
0.375319 0.255339 0.000000 
0.202228 0.301858 0.000000 
0.247441 0.216524 0.000000 
0.292653 0.131190 0.000000 
0.329608 0.101886 0.000000 
0.548411 0.208820 0.000000 
0.511242 0.256583 0.000000 
0.474073 0.304346 0.000000 
0.319424 0.372571 0.000000 
0.164775 0.440795 0.000000 
0.183501 0.371327 0.000000 
0.202228 0.301858 0.000000 
0.375319 0.255339 0.000000 
0.474073 0.304346 0.000000 
0.372715 0.434596 0.000000 
0.271358 0.564846 0.000000 
0.175496 0.589905 0.000000 
0.079635 0.614965 0.000000 
0.122205 0.527880 0.000000 
0.164775 0.440795 0.000000 
0.319424 0.372571 0.000000 
0.271358 0.564846 0.000000 
0.301896 0.619687 0.000000 
0.332434 0.674528 0.000000 
0.279891 0.697925 0.000000 
0.227348 0.721323 0.000000 
0.153491 0.668144 0.000000 
0.079635 0.614965 0.000000 
0.175496 0.589905 0.000000 
0.332434 0.674528 0.000000 
0.360889 0.725631 0.000000 
0.389345 0.776733 0.000000 
0.331836 0.772662 0.000000 
0.274326 0.768590 0.000000 
0.250837 0.744957 0.000000 
0.227348 0.721323 0.000000 
0.279891 0.697925 0.000000 
0.389345 0.776733 0.000000 
0.369669 0.826956 0.000000 
0.349994 0.877179 0.000000 
0.309245 0.861069 0.000000 
0.268496 0.844959 0.000000 
0.271411 0.806774 0.000000 
0.274326 0.768590 0.000000 
0.331836 0.772662 0.000000 
0.349994 0.877179 0.000000 
0.325936 0.938589 0.000000 
0.301877 1.000000 0.000000 
0.265267 1.000000 0.000000 
0.228657 1.000000 0.000000 
0.248577 0.922480 0.000000 
0.268496 0.844959 0.000000 
0.309245 0.861069 0.000000 
0.055801 0.000000 0.000000 
0.174227 0.065595 0.000000 
0.292653 0.131190 0.000000 
0.146327 0.202942 0.000000 
0.000000 0.274694 0.000000 
0.000000 0.137347 0.000000 
0.000000 0.000000 0.000000 
0.027901 0.000000 0.000000 
0.292653 0.131190 0.000000 
0.247441 0.216524 0.000000 
0.202228 0.301858 0.000000 
0.101114 0.329033 0.000000 
0.000000 0.356208 0.000000 
0.000000 0.315451 0.000000 
0.000000 0.274694 0.000000 
0.146327 0.202942 0.000000 
0.202228 0.301858 0.000000 
0.183501 0.371327 0.000000 
0.164775 0.440795 0.000000 
0.082388 0.446195 0.000000 
0.000000 0.451596 0.000000 
0.000000 0.403902 0.000000 
0.000000 0.356208 0.000000 
0.101114 0.329033 0.000000 
0.164775 0.440795 0.000000 
0.122205 0.527880 0.000000 
0.079635 0.614965 0.000000 
0.039817 0.625374 0.000000 
0.000000 0.635783 0.000000 
0.000000 0.543689 0.000000 
0.000000 0.451596 0.000000 
0.082388 0.446195 0.000000 
0.079635 0.614965 0.000000 
0.153491 0.668144 0.000000 
0.227348 0.721323 0.000000 
0.113674 0.719144 0.000000 
0.000000 0.716965 0.000000 
0.000000 0.676374 0.000000 
0.000000 0.635783 0.000000 
0.039817 0.625374 0.000000 
0.227348 0.721323 0.000000 
0.250837 0.744957 0.000000 
0.274326 0.768590 0.000000 
0.137163 0.758880 0.000000 
0.000000 0.749170 0.000000 
0.000000 0.733067 0.000000 
0.000000 0.716965 0.000000 
0.113674 0.719144 0.000000 
0.274326 0.768590 0.000000 
0.271411 0.806774 0.000000 
0.268496 0.844959 0.000000 
0.134248 0.864596 0.000000 
0.000000 0.884233 0.000000 
0.000000 0.816701 0.000000 
0.000000 0.749170 0.000000 
0.137163 0.758880 0.000000 
0.268496 0.844959 0.000000 
0.248577 0.922480 0.000000 
0.228657 1.000000 0.000000 
0.114329 1.000000 0.000000 
0.000000 1.000000 0.000000 
0.000000 0.942117 0.000000 
0.000000 0.884233 0.000000 
0.134248 0.864596 0.000000 
CELLS 64 576 
 8 0 1 2 3 4 5 6 7  
 8 8 9 10 11 12 13 14 15  
 8 16 17 18 19 20 21 22 23  
 8 24 25 26 27 28 29 30 31  
 8 32 33 34 35 36 37 38 39  
 8 40 41 42 43 44 45 46 47  
 8 48 49 50 51 52 53 54 55  
 8 56 57 58 59 60 61 62 63  
 8 64 65 66 67 68 69 70 71  
 8 72 73 74 75 76 77 78 79  
 8 80 81 82 83 84 85 86 87  
 8 88 89 90 91 92 93 94 95  
 8 96 97 98 99 100 101 102 103  
 8 104 105 106 107 108 109 110 111  
 8 112 113 114 115 116 117 118 119  
 8 120 121 122 123 124 125 126 127  
 8 128 129 130 131 132 133 134 135  
 8 136 137 138 139 140 141 142 143  
 8 144 145 146 147 148 149 150 151  
 8 152 153 154 155 156 157 158 159  
 8 160 161 162 163 164 165 166 167  
 8 168 169 170 171 172 173 174 175  
 8 176 177 178 179 180 181 182 183  
 8 184 185 186 187 188 189 190 191  
 8 192 193 194 195 196 197 198 199  
 8 200 201 202 203 204 205 206 207  
 8 208 209 210 211 212 213 214 215  
 8 216 217 218 219 220 221 222 223  
 8 224 225 226 227 228 229 230 231  
 8 232 233 234 235 236 237 238 239  
 8 240 241 242 243 244 245 246 247  
 8 248 249 250 251 252 253 254 255  
 8 256 257 258 259 260 261 262 263  
 8 264 265 266 267 268 269 270 271  
 8 272 273 274 275 276 277 278 279  
 8 280 281 282 283 284 285 286 287  
 8 288 289 290 291 292 293 294 295  
 8 296 297 298 299 300 301 302 303  
 8 304 305 306 307 308 309 310 311  
 8 312 313 314 315 316 317 318 319  
 8 320 321 322 323 324 325 326 327  
 8 328 329 330 331 332 333 334 335  
 8 336 337 338 339 340 341 342 343  
 8 344 345 346 347 348 349 350 351  
 8 352 353 354 355 356 357 358 359  
 8 360 361 362 363 364 365 366 367  
 8 368 369 370 371 372 373 374 375  
 8 376 377 378 379 380 381 382 383  
 8 384 385 386 387 388 389 390 391  
 8 392 393 394 395 396 397 398 399  
 8 400 401 402 403 404 405 406 407  
 8 408 409 410 411 412 413 414 415  
 8 416 417 418 419 420 421 422 423  
 8 424 425 426 427 428 429 430 431  
 8 432 433 434 435 436 437 438 439  
 8 440 441 442 443 444 445 446 447  
 8 448 449 450 451 452 453 454 455  
 8 456 457 458 459 460 461 462 463  
 8 464 465 466 467 468 469 470 471  
 8 472 473 474 475 476 477 478 479  
 8 480 481 482 483 484 485 486 487  
 8 488 489 490 491 492 493 494 495  
 8 496 497 498 499 500 501 502 503  
 8 504 505 506 507 508 509 510 511  
 
CELL_TYPES 64
7
7
7
7
7
7
7
7
7
7
7
7
7
7
7
7
7
7
7
7
7
7
7
7
7
7
7
7
7
7
7
7
7
7
7
7
7
7
7
7
7
7
7
7
7
7
7
7
7
7
7
7
7
7
7
7
7
7
7
7
7
7
7
7
CELL_DATA 64
FIELD FieldData 1
material 1 64 int
1
1
1
1
1
1
1
1
1
1
1
1
1
1
1
1
1
1
1
1
1
1
1
1
1
1
1
1
1
1
1
1
1
1
1
1
1
1
1
1
1
1
1
1
1
1
1
1
1
1
1
1
1
1
1
1
1
1
1
1
1
1
1
1
POINT_DATA 512 SCALARS flux double 
LOOKUP_TABLE   default 
9.29861120e-05
8.01822016e-06
2.38343054e-04
-2.05982198e-03
-2.26871199e-04
1.00506714e-03
-3.59308261e-05
2.85305683e-04
2.12252592e-03
-3.19368210e-03
2.08239387e-03
-5.60038141e-03
9.42290101e-04
-1.24930240e-02
4.46316167e-04
-5.92359830e-03
9.80369667e-04
1.34814760e-03
3.91797480e-04
1.24198969e-03
-5.27907433e-04
-3.25862520e-03
-6.92536922e-04
-2.38195927e-03
1.83105377e-04
-1.48223867e-04
1.87209786e-04
1.47729511e-03
9.94911521e-05
-6.95713152e-04
-3.10656036e-04
5.10910262e-04
1.34289017e-04
3.25686359e-05
1.82731579e-04
9.70161886e-04
-9.49245012e-05
-1.14552246e-03
-8.11900906e-05
1.41533794e-03
-7.82710982e-06
1.34150097e-04
-2.61706598e-05
-4.11722526e-03
6.19825444e-05
-3.59508725e-03
-8.80338684e-05
1.18896726e-03
1.82795193e-05
-1.36199665e-03
-1.92995646e-04
-2.41896363e-02
1.31232696e-03
-1.75841245e-02
3.98505708e-04
-5.31582378e-03
-4.68899596e-04
-4.03701647e-04
3.39627150e-04
-4.15006300e-04
5.62171238e-04
1.59730841e-03
7.13516841e-04
-2.39063092e-02
6.45234541e-04
-3.22624003e-04
4.94432969e-04
-5.67950456e-03
2.91380233e-04
-1.08762327e-02
5.86838731e-04
-1.26643065e-03
2.38233726e-04
-9.70477541e-03
1.39109130e-03
-4.23158506e-03
-3.02281545e-04
-1.64766492e-02
-3.71214041e-04
-5.64461557e-03
7.00868379e-04
-4.23718744e-03
5.67131556e-04
-6.53451598e-03
-4.07888903e-04
-2.10363555e-03
-7.56617913e-04
-4.26884913e-03
2.74669511e-04
5.51440177e-06
7.35885729e-04
4.95159557e-04
-6.60308703e-04
-1.02611933e-02
-4.93432795e-04
-6.00411730e-03
2.96231868e-04
-1.16990267e-03
1.08838419e-04
-1.10506305e-02
5.26623337e-05
-1.65586009e-02
2.42678434e-05
-1.78755871e-04
1.15749780e-04
-4.18738618e-03
5.82705208e-05
-1.01912380e-02
3.72908854e-04
-5.59866242e-03
1.52295206e-04
-1.12696326e-02
-5.59621332e-04
-1.55902679e-02
-2.38617610e-06
-6.19136473e-05
4.97782344e-05
-2.82358199e-03
-3.51110077e-04
-9.03412290e-03
4.46253677e-05
1.83099422e-03
1.23815152e-04
-1.58621586e-04
1.56983493e-04
-4.38677089e-04
1.29752837e-04
-1.34131522e-03
3.53207546e-05
-9.54678889e-03
-5.87979743e-05
-2.07109210e-03
-3.49468902e-04
-3.62940190e-03
-5.51290251e-06
3.76675491e-04
-5.02798992e-04
-1.57924621e-02
1.12286164e-04
-7.22502053e-03
-1.22846656e-04
-1.37767171e-02
-5.51597512e-04
-2.12143254e-03
-1.32035537e-04
-1.59554601e-03
1.53758821e-04
-2.75250914e-03
4.48891470e-05
-4.46119309e-03
-6.97014339e-06
-7.59061100e-03
1.82518324e-04
-1.05933193e-02
6.59946616e-05
-3.18405581e-04
-1.86178846e-04
-1.34954605e-02
-1.48748668e-04
-2.41890637e-03
-1.29026096e-04
-1.58255375e-02
-6.89076462e-05
-6.10962077e-03
-6.48685278e-04
-5.88455022e-03
-7.93117906e-05
-2.41242705e-04
2.55979494e-04
-5.34491877e-03
1.78987486e-04
-6.00712660e-03
-1.32419904e-04
-5.70792283e-03
-3.27973027e-04
-6.66852206e-03
1.42877302e-04
-4.00266525e-03
6.82775754e-04
-4.69750166e-03
-2.86168776e-04
-7.09964868e-03
-1.18930771e-04
-5.96741040e-03
6.51688812e-04
-1.37643723e-04
3.79311856e-04
-1.51584764e-04
5.45038944e-05
-1.09704080e-02
-2.57584245e-04
-4.74959381e-03
1.40097962e-04
-3.70631230e-03
-2.14990978e-04
-7.86345517e-04
-1.59165289e-04
-1.11787095e-02
2.65706272e-04
4.53434936e-04
-1.68733226e-04
-1.40794331e-02
4.42838454e-05
-1.81614904e-03
-5.40276516e-05
-4.48159411e-03
-1.48140709e-05
-1.00145186e-03
-1.16702682e-04
-4.07272601e-03
1.60824034e-05
-8.80908362e-03
-2.72657216e-04
-3.12583769e-03
-7.10387979e-07
-1.54194949e-03
5.76716478e-04
-1.47948978e-02
1.12654205e-03
-1.81895077e-02
-2.05927150e-04
-1.88459457e-03
1.47358870e-05
-1.03397673e-02
7.65684767e-04
-6.46086634e-03
-2.70538602e-06
-5.32446921e-03
-2.64272052e-04
-1.57143128e-03
-7.19090880e-04
-1.69245535e-02
-1.12408015e-05
-5.44961793e-03
2.97645738e-05
-5.34459606e-03
-1.58219978e-04
-3.20932942e-03
-2.09514399e-04
-5.15358552e-03
2.68875694e-05
-6.83380617e-03
4.81066290e-05
-5.46752845e-03
-9.92017290e-05
-5.46993619e-03
-1.02306616e-04
-5.42213372e-03
1.81789618e-04
-1.15389908e-02
3.76446189e-04
-7.96375373e-04
6.88246676e-04
-3.33284895e-02
-6.13184910e-04
-5.48873824e-03
8.22383880e-04
-1.36873015e-02
1.93980493e-07
-1.27484776e-02
2.14474044e-04
-6.75372076e-03
2.04192044e-03
-2.05317245e-03
-1.87459790e-04
-4.60517968e-03
-1.36088159e-05
-3.86472929e-03
-1.63416282e-04
-1.12465832e-02
3.61847329e-04
-9.74019712e-03
5.50706348e-05
-2.56514276e-03
-5.06588862e-04
-2.49757482e-02
-7.30138316e-04
-3.14299411e-02
3.61725154e-04
-2.93804937e-03
-3.82619932e-05
-9.08322527e-04
-7.67752906e-05
-2.12428088e-02
5.34705879e-05
-9.65081348e-04
-5.92346049e-05
-2.55861967e-02
-7.00100354e-05
-1.62271099e-03
-6.88762064e-05
-7.96687612e-03
2.24102464e-06
-3.44942210e-03
7.23308307e-05
-2.11954094e-02
-6.40684994e-05
-3.21397123e-03
-3.67917728e-05
-2.72830774e-03
-3.38597905e-05
-2.71108628e-03
-4.98297428e-05
-7.97362178e-03
-5.07901808e-05
-5.50227132e-03
-1.70546097e-04
-1.27223774e-03
2.70782259e-05
-3.39630236e-03
-7.94392810e-05
-2.68112791e-03
-1.01227686e-03
-3.27631820e-02
4.36905775e-04
4.60489027e-04
6.32759133e-04
-2.33741427e-02
-7.61858778e-04
-1.48075197e-03
4.36904359e-04
-4.13408335e-03
-1.40935387e-03
-4.27384749e-03
-1.03117437e-03
2.69454086e-03
1.01147325e-03
1.51782170e-03
2.91036716e-04
-1.24783050e-02
-2.97037963e-04
-3.69297266e-03
2.53142109e-04
-1.23405113e-02
1.31735896e-03
-6.38517538e-03
5.52031378e-04
-3.18433311e-02
-5.70491030e-04
-1.34147201e-02
-5.43618754e-04
-5.27802931e-03
7.64243654e-04
-1.42411725e-03
-1.54283154e-04
-7.98193913e-04
3.16750996e-05
-1.03342711e-02
5.24406505e-04
-4.13654430e-02
-1.03410814e-03
-1.32866327e-02
-1.70963715e-05
-3.47212853e-03
-3.06873032e-04
-1.25945506e-02
1.59018149e-04
-6.36410390e-03
2.00516720e-05
-1.03004192e-02
-5.69777753e-04
-2.78998303e-03
-6.46023809e-04
-1.04288037e-02
3.06266351e-04
-5.65442436e-03
1.34565392e-04
-1.24181724e-02
-7.03615557e-04
-4.20131334e-03
-7.15568009e-04
-9.40221850e-03
1.02533369e-03
-3.24330358e-03
3.90888393e-04
-1.09807119e-02
-1.97692589e-03
-2.22365065e-02
-4.92070950e-04
2.38179804e-03
7.13848084e-04
-8.49560200e-04
-4.62503417e-04
-7.78546273e-03
1.32610747e-03
5.05646616e-04
-5.95478789e-04
-6.22503121e-03
-1.72429134e-03
1.75638326e-02
2.65799399e-03
-2.03065959e-03
5.94343858e-04
-9.93419253e-03
6.05453802e-04
-4.36939447e-02
-1.63512667e-03
-1.54347589e-02
-4.82909225e-04
-2.80226551e-03
2.75579211e-03
-6.02721495e-03
2.22213900e-04
-4.72089373e-02
1.21432077e-04
-8.52165129e-03
-5.73031415e-04
-4.65225055e-02
-1.02589825e-03
-4.14712000e-02
-4.43239705e-05
-1.19158149e-02
2.46897395e-03
-6.36292868e-03
-1.51516452e-03
-4.59177856e-02
-4.79656433e-04
-5.76816828e-03
-2.89323552e-04
-2.63449751e-03
-3.13356269e-04
-1.49589134e-02
6.83511291e-04
-1.27896894e-02
-1.04468463e-04
-6.01550200e-03
7.76741037e-05
-4.08741743e-03
6.90433091e-05
-2.23715411e-03
-5.60191894e-05
-3.10067385e-03
-1.29966857e-04
-2.87148104e-03
7.89296946e-05
-2.64399346e-03
7.03949576e-05
-1.60657653e-03
-3.56426251e-04
-3.74684874e-03
-2.71666537e-04
-2.99975083e-03
4.52628658e-04
-1.56747008e-04
4.36389091e-04
-2.76298636e-03
-4.94016140e-04
-3.23992072e-03
3.39881863e-03
1.53920389e-02
-1.36854870e-04
-5.57590718e-02
-6.26230626e-05
-2.91049328e-03
3.27994631e-03
-9.76789775e-05
5.85010940e-04
-1.67849644e-02
-8.70520747e-05
-1.88653382e-02
-1.05095019e-04
4.91819555e-04
-8.09265662e-04
-5.25958313e-02
-2.91335232e-04
-6.27700198e-03
-2.14648757e-04
-1.03802463e-02
-5.87153188e-05
5.06202284e-04
-2.75198033e-04
-1.88218390e-02
-7.74821474e-04
-7.05594388e-03
7.27679438e-04
-1.49027854e-03
9.07059309e-04
-2.23756377e-04
-6.71443399e-05
-1.10014634e-02
5.41335267e-04
-1.59387792e-02
-1.71593105e-05
-1.72431287e-02
2.42384901e-04
-6.07351660e-04
4.68205089e-04
-2.56445404e-03
-3.47921215e-05
-2.45832073e-03
2.15979946e-04
-2.50348814e-02
6.47072682e-05
-1.04371785e-04
-1.09483787e-04
-1.68772412e-02
-3.80055910e-04
-3.00007605e-03
3.03180522e-04
-5.84804917e-03
1.29478026e-03
-1.44983546e-03
4.67253193e-04
-2.59321848e-02
-1.89416967e-03
-1.35063303e-03
-7.12223480e-04
1.95016132e-03
4.54905120e-04
2.28983420e-03
-6.95482288e-04
-3.08199139e-03
 
