# vtk DataFile Version 3.0 
Date: 5/2/2016   Time: 21:24
ASCII 
DATASET UNSTRUCTURED_GRID 
 
POINTS 512 float 
1.000000 0.000000 0.000000 
1.000000 0.080221 0.000000 
1.000000 0.160441 0.000000 
0.966941 0.155668 0.000000 
0.933882 0.150896 0.000000 
0.942203 0.075448 0.000000 
0.950524 0.000000 0.000000 
0.975262 0.000000 0.000000 
1.000000 0.160441 0.000000 
1.000000 0.393069 0.000000 
1.000000 0.625698 0.000000 
0.967703 0.537498 0.000000 
0.935406 0.449299 0.000000 
0.934644 0.300098 0.000000 
0.933882 0.150896 0.000000 
0.966941 0.155668 0.000000 
1.000000 0.625698 0.000000 
1.000000 0.660959 0.000000 
1.000000 0.696219 0.000000 
0.969478 0.670855 0.000000 
0.938956 0.645490 0.000000 
0.937181 0.547395 0.000000 
0.935406 0.449299 0.000000 
0.967703 0.537498 0.000000 
1.000000 0.696219 0.000000 
1.000000 0.744380 0.000000 
1.000000 0.792541 0.000000 
0.970563 0.764327 0.000000 
0.941126 0.736113 0.000000 
0.940041 0.690802 0.000000 
0.938956 0.645490 0.000000 
0.969478 0.670855 0.000000 
1.000000 0.792541 0.000000 
1.000000 0.800485 0.000000 
1.000000 0.808429 0.000000 
0.953354 0.785374 0.000000 
0.906709 0.762320 0.000000 
0.923917 0.749216 0.000000 
0.941126 0.736113 0.000000 
0.970563 0.764327 0.000000 
1.000000 0.808429 0.000000 
1.000000 0.827440 0.000000 
1.000000 0.846451 0.000000 
0.939477 0.851819 0.000000 
0.878954 0.857187 0.000000 
0.892832 0.809754 0.000000 
0.906709 0.762320 0.000000 
0.953354 0.785374 0.000000 
1.000000 0.846451 0.000000 
1.000000 0.872240 0.000000 
1.000000 0.898030 0.000000 
0.867185 0.927217 0.000000 
0.734371 0.956404 0.000000 
0.806663 0.906796 0.000000 
0.878954 0.857187 0.000000 
0.939477 0.851819 0.000000 
1.000000 0.898030 0.000000 
1.000000 0.949015 0.000000 
1.000000 1.000000 0.000000 
0.904705 1.000000 0.000000 
0.809411 1.000000 0.000000 
0.771891 0.978202 0.000000 
0.734371 0.956404 0.000000 
0.867185 0.927217 0.000000 
0.950524 0.000000 0.000000 
0.942203 0.075448 0.000000 
0.933882 0.150896 0.000000 
0.878210 0.141512 0.000000 
0.822538 0.132127 0.000000 
0.799459 0.066063 0.000000 
0.776379 0.000000 0.000000 
0.863452 0.000000 0.000000 
0.933882 0.150896 0.000000 
0.934644 0.300098 0.000000 
0.935406 0.449299 0.000000 
0.912961 0.388005 0.000000 
0.890516 0.326711 0.000000 
0.856527 0.229419 0.000000 
0.822538 0.132127 0.000000 
0.878210 0.141512 0.000000 
0.935406 0.449299 0.000000 
0.937181 0.547395 0.000000 
0.938956 0.645490 0.000000 
0.912161 0.533697 0.000000 
0.885366 0.421905 0.000000 
0.887941 0.374308 0.000000 
0.890516 0.326711 0.000000 
0.912961 0.388005 0.000000 
0.938956 0.645490 0.000000 
0.940041 0.690802 0.000000 
0.941126 0.736113 0.000000 
0.906540 0.702964 0.000000 
0.871955 0.669816 0.000000 
0.878661 0.545860 0.000000 
0.885366 0.421905 0.000000 
0.912161 0.533697 0.000000 
0.941126 0.736113 0.000000 
0.923917 0.749216 0.000000 
0.906709 0.762320 0.000000 
0.826585 0.781956 0.000000 
0.746460 0.801591 0.000000 
0.809208 0.735704 0.000000 
0.871955 0.669816 0.000000 
0.906540 0.702964 0.000000 
0.906709 0.762320 0.000000 
0.892832 0.809754 0.000000 
0.878954 0.857187 0.000000 
0.777680 0.866170 0.000000 
0.676406 0.875152 0.000000 
0.711433 0.838372 0.000000 
0.746460 0.801591 0.000000 
0.826585 0.781956 0.000000 
0.878954 0.857187 0.000000 
0.806663 0.906796 0.000000 
0.734371 0.956404 0.000000 
0.700061 0.964942 0.000000 
0.665751 0.973479 0.000000 
0.671078 0.924316 0.000000 
0.676406 0.875152 0.000000 
0.777680 0.866170 0.000000 
0.734371 0.956404 0.000000 
0.771891 0.978202 0.000000 
0.809411 1.000000 0.000000 
0.736144 1.000000 0.000000 
0.662877 1.000000 0.000000 
0.664314 0.986739 0.000000 
0.665751 0.973479 0.000000 
0.700061 0.964942 0.000000 
0.776379 0.000000 0.000000 
0.799459 0.066063 0.000000 
0.822538 0.132127 0.000000 
0.771515 0.127270 0.000000 
0.720492 0.122413 0.000000 
0.725706 0.061206 0.000000 
0.730920 0.000000 0.000000 
0.753650 0.000000 0.000000 
0.822538 0.132127 0.000000 
0.856527 0.229419 0.000000 
0.890516 0.326711 0.000000 
0.817821 0.323481 0.000000 
0.745127 0.320251 0.000000 
0.732810 0.221332 0.000000 
0.720492 0.122413 0.000000 
0.771515 0.127270 0.000000 
0.890516 0.326711 0.000000 
0.887941 0.374308 0.000000 
0.885366 0.421905 0.000000 
0.852303 0.403485 0.000000 
0.819241 0.385065 0.000000 
0.782184 0.352658 0.000000 
0.745127 0.320251 0.000000 
0.817821 0.323481 0.000000 
0.885366 0.421905 0.000000 
0.878661 0.545860 0.000000 
0.871955 0.669816 0.000000 
0.849340 0.648140 0.000000 
0.826724 0.626464 0.000000 
0.822982 0.505764 0.000000 
0.819241 0.385065 0.000000 
0.852303 0.403485 0.000000 
0.871955 0.669816 0.000000 
0.809208 0.735704 0.000000 
0.746460 0.801591 0.000000 
0.721275 0.718855 0.000000 
0.696089 0.636119 0.000000 
0.761406 0.631292 0.000000 
0.826724 0.626464 0.000000 
0.849340 0.648140 0.000000 
0.746460 0.801591 0.000000 
0.711433 0.838372 0.000000 
0.676406 0.875152 0.000000 
0.655986 0.803413 0.000000 
0.635565 0.731674 0.000000 
0.665827 0.683897 0.000000 
0.696089 0.636119 0.000000 
0.721275 0.718855 0.000000 
0.676406 0.875152 0.000000 
0.671078 0.924316 0.000000 
0.665751 0.973479 0.000000 
0.613871 0.903801 0.000000 
0.561991 0.834122 0.000000 
0.598778 0.782898 0.000000 
0.635565 0.731674 0.000000 
0.655986 0.803413 0.000000 
0.665751 0.973479 0.000000 
0.664314 0.986739 0.000000 
0.662877 1.000000 0.000000 
0.608032 1.000000 0.000000 
0.553186 1.000000 0.000000 
0.557589 0.917061 0.000000 
0.561991 0.834122 0.000000 
0.613871 0.903801 0.000000 
0.730920 0.000000 0.000000 
0.725706 0.061206 0.000000 
0.720492 0.122413 0.000000 
0.703614 0.159185 0.000000 
0.686736 0.195956 0.000000 
0.697534 0.097978 0.000000 
0.708332 0.000000 0.000000 
0.719626 0.000000 0.000000 
0.720492 0.122413 0.000000 
0.732810 0.221332 0.000000 
0.745127 0.320251 0.000000 
0.709258 0.318657 0.000000 
0.673389 0.317063 0.000000 
0.680063 0.256510 0.000000 
0.686736 0.195956 0.000000 
0.703614 0.159185 0.000000 
0.745127 0.320251 0.000000 
0.782184 0.352658 0.000000 
0.819241 0.385065 0.000000 
0.740636 0.402588 0.000000 
0.662032 0.420111 0.000000 
0.667710 0.368587 0.000000 
0.673389 0.317063 0.000000 
0.709258 0.318657 0.000000 
0.819241 0.385065 0.000000 
0.822982 0.505764 0.000000 
0.826724 0.626464 0.000000 
0.741961 0.545222 0.000000 
0.657197 0.463981 0.000000 
0.659614 0.442046 0.000000 
0.662032 0.420111 0.000000 
0.740636 0.402588 0.000000 
0.826724 0.626464 0.000000 
0.761406 0.631292 0.000000 
0.696089 0.636119 0.000000 
0.664905 0.580151 0.000000 
0.633722 0.524183 0.000000 
0.645460 0.494082 0.000000 
0.657197 0.463981 0.000000 
0.741961 0.545222 0.000000 
0.696089 0.636119 0.000000 
0.665827 0.683897 0.000000 
0.635565 0.731674 0.000000 
0.618106 0.670338 0.000000 
0.600647 0.609002 0.000000 
0.617185 0.566593 0.000000 
0.633722 0.524183 0.000000 
0.664905 0.580151 0.000000 
0.635565 0.731674 0.000000 
0.598778 0.782898 0.000000 
0.561991 0.834122 0.000000 
0.560021 0.776180 0.000000 
0.558051 0.718238 0.000000 
0.579349 0.663620 0.000000 
0.600647 0.609002 0.000000 
0.618106 0.670338 0.000000 
0.561991 0.834122 0.000000 
0.557589 0.917061 0.000000 
0.553186 1.000000 0.000000 
0.500682 1.000000 0.000000 
0.448179 1.000000 0.000000 
0.503115 0.859119 0.000000 
0.558051 0.718238 0.000000 
0.560021 0.776180 0.000000 
0.708332 0.000000 0.000000 
0.697534 0.097978 0.000000 
0.686736 0.195956 0.000000 
0.635244 0.141595 0.000000 
0.583753 0.087234 0.000000 
0.489919 0.043617 0.000000 
0.396085 0.000000 0.000000 
0.552208 0.000000 0.000000 
0.686736 0.195956 0.000000 
0.680063 0.256510 0.000000 
0.673389 0.317063 0.000000 
0.637020 0.285565 0.000000 
0.600652 0.254066 0.000000 
0.592202 0.170650 0.000000 
0.583753 0.087234 0.000000 
0.635244 0.141595 0.000000 
0.673389 0.317063 0.000000 
0.667710 0.368587 0.000000 
0.662032 0.420111 0.000000 
0.536002 0.449243 0.000000 
0.409972 0.478375 0.000000 
0.505312 0.366221 0.000000 
0.600652 0.254066 0.000000 
0.637020 0.285565 0.000000 
0.662032 0.420111 0.000000 
0.659614 0.442046 0.000000 
0.657197 0.463981 0.000000 
0.544131 0.493538 0.000000 
0.431065 0.523096 0.000000 
0.420519 0.500736 0.000000 
0.409972 0.478375 0.000000 
0.536002 0.449243 0.000000 
0.657197 0.463981 0.000000 
0.645460 0.494082 0.000000 
0.633722 0.524183 0.000000 
0.568614 0.553847 0.000000 
0.503506 0.583511 0.000000 
0.467286 0.553303 0.000000 
0.431065 0.523096 0.000000 
0.544131 0.493538 0.000000 
0.633722 0.524183 0.000000 
0.617185 0.566593 0.000000 
0.600647 0.609002 0.000000 
0.568078 0.634856 0.000000 
0.535508 0.660709 0.000000 
0.519507 0.622110 0.000000 
0.503506 0.583511 0.000000 
0.568614 0.553847 0.000000 
0.600647 0.609002 0.000000 
0.579349 0.663620 0.000000 
0.558051 0.718238 0.000000 
0.535672 0.733755 0.000000 
0.513293 0.749272 0.000000 
0.524401 0.704991 0.000000 
0.535508 0.660709 0.000000 
0.568078 0.634856 0.000000 
0.558051 0.718238 0.000000 
0.503115 0.859119 0.000000 
0.448179 1.000000 0.000000 
0.432978 1.000000 0.000000 
0.417777 1.000000 0.000000 
0.465535 0.874636 0.000000 
0.513293 0.749272 0.000000 
0.535672 0.733755 0.000000 
0.396085 0.000000 0.000000 
0.489919 0.043617 0.000000 
0.583753 0.087234 0.000000 
0.475158 0.079908 0.000000 
0.366564 0.072582 0.000000 
0.318123 0.036291 0.000000 
0.269682 0.000000 0.000000 
0.332884 0.000000 0.000000 
0.583753 0.087234 0.000000 
0.592202 0.170650 0.000000 
0.600652 0.254066 0.000000 
0.574531 0.231443 0.000000 
0.548411 0.208820 0.000000 
0.457487 0.140701 0.000000 
0.366564 0.072582 0.000000 
0.475158 0.079908 0.000000 
0.600652 0.254066 0.000000 
0.505312 0.366221 0.000000 
0.409972 0.478375 0.000000 
0.442022 0.391361 0.000000 
0.474073 0.304346 0.000000 
0.511242 0.256583 0.000000 
0.548411 0.208820 0.000000 
0.574531 0.231443 0.000000 
0.409972 0.478375 0.000000 
0.420519 0.500736 0.000000 
0.431065 0.523096 0.000000 
0.351212 0.543971 0.000000 
0.271358 0.564846 0.000000 
0.372715 0.434596 0.000000 
0.474073 0.304346 0.000000 
0.442022 0.391361 0.000000 
0.431065 0.523096 0.000000 
0.467286 0.553303 0.000000 
0.503506 0.583511 0.000000 
0.417970 0.629020 0.000000 
0.332434 0.674528 0.000000 
0.301896 0.619687 0.000000 
0.271358 0.564846 0.000000 
0.351212 0.543971 0.000000 
0.503506 0.583511 0.000000 
0.519507 0.622110 0.000000 
0.535508 0.660709 0.000000 
0.462426 0.718721 0.000000 
0.389345 0.776733 0.000000 
0.360889 0.725631 0.000000 
0.332434 0.674528 0.000000 
0.417970 0.629020 0.000000 
0.535508 0.660709 0.000000 
0.524401 0.704991 0.000000 
0.513293 0.749272 0.000000 
0.431644 0.813226 0.000000 
0.349994 0.877179 0.000000 
0.369669 0.826956 0.000000 
0.389345 0.776733 0.000000 
0.462426 0.718721 0.000000 
0.513293 0.749272 0.000000 
0.465535 0.874636 0.000000 
0.417777 1.000000 0.000000 
0.359827 1.000000 0.000000 
0.301877 1.000000 0.000000 
0.325936 0.938589 0.000000 
0.349994 0.877179 0.000000 
0.431644 0.813226 0.000000 
0.269682 0.000000 0.000000 
0.318123 0.036291 0.000000 
0.366564 0.072582 0.000000 
0.329608 0.101886 0.000000 
0.292653 0.131190 0.000000 
0.174227 0.065595 0.000000 
0.055801 0.000000 0.000000 
0.162742 0.000000 0.000000 
0.366564 0.072582 0.000000 
0.457487 0.140701 0.000000 
0.548411 0.208820 0.000000 
0.375319 0.255339 0.000000 
0.202228 0.301858 0.000000 
0.247441 0.216524 0.000000 
0.292653 0.131190 0.000000 
0.329608 0.101886 0.000000 
0.548411 0.208820 0.000000 
0.511242 0.256583 0.000000 
0.474073 0.304346 0.000000 
0.319424 0.372571 0.000000 
0.164775 0.440795 0.000000 
0.183501 0.371327 0.000000 
0.202228 0.301858 0.000000 
0.375319 0.255339 0.000000 
0.474073 0.304346 0.000000 
0.372715 0.434596 0.000000 
0.271358 0.564846 0.000000 
0.175496 0.589905 0.000000 
0.079635 0.614965 0.000000 
0.122205 0.527880 0.000000 
0.164775 0.440795 0.000000 
0.319424 0.372571 0.000000 
0.271358 0.564846 0.000000 
0.301896 0.619687 0.000000 
0.332434 0.674528 0.000000 
0.279891 0.697925 0.000000 
0.227348 0.721323 0.000000 
0.153491 0.668144 0.000000 
0.079635 0.614965 0.000000 
0.175496 0.589905 0.000000 
0.332434 0.674528 0.000000 
0.360889 0.725631 0.000000 
0.389345 0.776733 0.000000 
0.331836 0.772662 0.000000 
0.274326 0.768590 0.000000 
0.250837 0.744957 0.000000 
0.227348 0.721323 0.000000 
0.279891 0.697925 0.000000 
0.389345 0.776733 0.000000 
0.369669 0.826956 0.000000 
0.349994 0.877179 0.000000 
0.309245 0.861069 0.000000 
0.268496 0.844959 0.000000 
0.271411 0.806774 0.000000 
0.274326 0.768590 0.000000 
0.331836 0.772662 0.000000 
0.349994 0.877179 0.000000 
0.325936 0.938589 0.000000 
0.301877 1.000000 0.000000 
0.265267 1.000000 0.000000 
0.228657 1.000000 0.000000 
0.248577 0.922480 0.000000 
0.268496 0.844959 0.000000 
0.309245 0.861069 0.000000 
0.055801 0.000000 0.000000 
0.174227 0.065595 0.000000 
0.292653 0.131190 0.000000 
0.146327 0.202942 0.000000 
0.000000 0.274694 0.000000 
0.000000 0.137347 0.000000 
0.000000 0.000000 0.000000 
0.027901 0.000000 0.000000 
0.292653 0.131190 0.000000 
0.247441 0.216524 0.000000 
0.202228 0.301858 0.000000 
0.101114 0.329033 0.000000 
0.000000 0.356208 0.000000 
0.000000 0.315451 0.000000 
0.000000 0.274694 0.000000 
0.146327 0.202942 0.000000 
0.202228 0.301858 0.000000 
0.183501 0.371327 0.000000 
0.164775 0.440795 0.000000 
0.082388 0.446195 0.000000 
0.000000 0.451596 0.000000 
0.000000 0.403902 0.000000 
0.000000 0.356208 0.000000 
0.101114 0.329033 0.000000 
0.164775 0.440795 0.000000 
0.122205 0.527880 0.000000 
0.079635 0.614965 0.000000 
0.039817 0.625374 0.000000 
0.000000 0.635783 0.000000 
0.000000 0.543689 0.000000 
0.000000 0.451596 0.000000 
0.082388 0.446195 0.000000 
0.079635 0.614965 0.000000 
0.153491 0.668144 0.000000 
0.227348 0.721323 0.000000 
0.113674 0.719144 0.000000 
0.000000 0.716965 0.000000 
0.000000 0.676374 0.000000 
0.000000 0.635783 0.000000 
0.039817 0.625374 0.000000 
0.227348 0.721323 0.000000 
0.250837 0.744957 0.000000 
0.274326 0.768590 0.000000 
0.137163 0.758880 0.000000 
0.000000 0.749170 0.000000 
0.000000 0.733067 0.000000 
0.000000 0.716965 0.000000 
0.113674 0.719144 0.000000 
0.274326 0.768590 0.000000 
0.271411 0.806774 0.000000 
0.268496 0.844959 0.000000 
0.134248 0.864596 0.000000 
0.000000 0.884233 0.000000 
0.000000 0.816701 0.000000 
0.000000 0.749170 0.000000 
0.137163 0.758880 0.000000 
0.268496 0.844959 0.000000 
0.248577 0.922480 0.000000 
0.228657 1.000000 0.000000 
0.114329 1.000000 0.000000 
0.000000 1.000000 0.000000 
0.000000 0.942117 0.000000 
0.000000 0.884233 0.000000 
0.134248 0.864596 0.000000 
CELLS 64 576 
 8 0 1 2 3 4 5 6 7  
 8 8 9 10 11 12 13 14 15  
 8 16 17 18 19 20 21 22 23  
 8 24 25 26 27 28 29 30 31  
 8 32 33 34 35 36 37 38 39  
 8 40 41 42 43 44 45 46 47  
 8 48 49 50 51 52 53 54 55  
 8 56 57 58 59 60 61 62 63  
 8 64 65 66 67 68 69 70 71  
 8 72 73 74 75 76 77 78 79  
 8 80 81 82 83 84 85 86 87  
 8 88 89 90 91 92 93 94 95  
 8 96 97 98 99 100 101 102 103  
 8 104 105 106 107 108 109 110 111  
 8 112 113 114 115 116 117 118 119  
 8 120 121 122 123 124 125 126 127  
 8 128 129 130 131 132 133 134 135  
 8 136 137 138 139 140 141 142 143  
 8 144 145 146 147 148 149 150 151  
 8 152 153 154 155 156 157 158 159  
 8 160 161 162 163 164 165 166 167  
 8 168 169 170 171 172 173 174 175  
 8 176 177 178 179 180 181 182 183  
 8 184 185 186 187 188 189 190 191  
 8 192 193 194 195 196 197 198 199  
 8 200 201 202 203 204 205 206 207  
 8 208 209 210 211 212 213 214 215  
 8 216 217 218 219 220 221 222 223  
 8 224 225 226 227 228 229 230 231  
 8 232 233 234 235 236 237 238 239  
 8 240 241 242 243 244 245 246 247  
 8 248 249 250 251 252 253 254 255  
 8 256 257 258 259 260 261 262 263  
 8 264 265 266 267 268 269 270 271  
 8 272 273 274 275 276 277 278 279  
 8 280 281 282 283 284 285 286 287  
 8 288 289 290 291 292 293 294 295  
 8 296 297 298 299 300 301 302 303  
 8 304 305 306 307 308 309 310 311  
 8 312 313 314 315 316 317 318 319  
 8 320 321 322 323 324 325 326 327  
 8 328 329 330 331 332 333 334 335  
 8 336 337 338 339 340 341 342 343  
 8 344 345 346 347 348 349 350 351  
 8 352 353 354 355 356 357 358 359  
 8 360 361 362 363 364 365 366 367  
 8 368 369 370 371 372 373 374 375  
 8 376 377 378 379 380 381 382 383  
 8 384 385 386 387 388 389 390 391  
 8 392 393 394 395 396 397 398 399  
 8 400 401 402 403 404 405 406 407  
 8 408 409 410 411 412 413 414 415  
 8 416 417 418 419 420 421 422 423  
 8 424 425 426 427 428 429 430 431  
 8 432 433 434 435 436 437 438 439  
 8 440 441 442 443 444 445 446 447  
 8 448 449 450 451 452 453 454 455  
 8 456 457 458 459 460 461 462 463  
 8 464 465 466 467 468 469 470 471  
 8 472 473 474 475 476 477 478 479  
 8 480 481 482 483 484 485 486 487  
 8 488 489 490 491 492 493 494 495  
 8 496 497 498 499 500 501 502 503  
 8 504 505 506 507 508 509 510 511  
 
CELL_TYPES 64
7
7
7
7
7
7
7
7
7
7
7
7
7
7
7
7
7
7
7
7
7
7
7
7
7
7
7
7
7
7
7
7
7
7
7
7
7
7
7
7
7
7
7
7
7
7
7
7
7
7
7
7
7
7
7
7
7
7
7
7
7
7
7
7
CELL_DATA 64
FIELD FieldData 1
material 1 64 int
1
1
1
1
1
1
1
1
1
1
1
1
1
1
1
1
1
1
1
1
1
1
1
1
1
1
1
1
1
1
1
1
1
1
1
1
1
1
1
1
1
1
1
1
1
1
1
1
1
1
1
1
1
1
1
1
1
1
1
1
1
1
1
1
POINT_DATA 512 SCALARS flux_g1 double 
LOOKUP_TABLE   default 
-9.29861120e-05
-8.01822016e-06
-2.38343054e-04
2.84585675e-02
4.99353183e-02
2.28625313e-02
3.59308261e-05
-2.85305683e-04
-2.12252592e-03
3.19368210e-03
-2.08239387e-03
5.44177697e-02
9.29918612e-02
9.31072107e-02
4.92621309e-02
3.23223438e-02
-9.80369667e-04
-1.34814760e-03
-3.91797480e-04
3.98112159e-02
8.29390817e-02
9.49048583e-02
9.46266882e-02
5.11993476e-02
-1.83105377e-04
1.48223867e-04
-1.87209786e-04
3.08586962e-02
6.75265037e-02
7.63392271e-02
8.27218303e-02
4.05422953e-02
-1.34289017e-04
-3.25686359e-05
-1.82731579e-04
4.61278048e-02
9.63929752e-02
8.41313881e-02
6.77071849e-02
3.09206533e-02
7.82710982e-06
-1.34150097e-04
2.61706598e-05
4.92120093e-02
8.17731474e-02
9.62110902e-02
9.63860846e-02
4.59089994e-02
-1.82795193e-05
1.36199665e-03
1.92995646e-04
7.30266057e-02
4.97921446e-02
1.00403904e-01
8.14366242e-02
5.04106079e-02
4.68899596e-04
4.03701647e-04
-3.39627150e-04
4.15006300e-04
-5.62171238e-04
2.19924482e-02
5.03909547e-02
7.27432786e-02
-6.45234541e-04
2.41902224e-02
4.92140141e-02
8.73219666e-02
1.04877915e-01
7.30287866e-02
-5.86838731e-04
1.26643065e-03
4.94702133e-02
9.03189622e-02
9.25430600e-02
1.22789672e-01
1.35054998e-01
1.52978577e-01
1.05540509e-01
8.72870776e-02
9.32332829e-02
9.58834205e-02
8.18440427e-02
1.31820262e-01
1.55943572e-01
1.48523646e-01
1.35509334e-01
1.22826936e-01
8.21365047e-02
7.56379996e-02
6.68901091e-02
1.10660680e-01
1.55808997e-01
1.76324667e-01
1.56029116e-01
1.31289863e-01
6.73297630e-02
8.41557683e-02
9.61892123e-02
1.64612084e-01
1.89071534e-01
2.05181884e-01
1.55124420e-01
1.11334595e-01
9.61823009e-02
9.68033891e-02
8.17768594e-02
1.36117792e-01
1.49890369e-01
1.80388021e-01
1.88971901e-01
1.64831086e-01
8.23947512e-02
9.84100478e-02
5.11068577e-02
4.46935703e-02
3.60478190e-02
9.98461215e-02
1.50614388e-01
1.34960677e-01
5.10598462e-02
2.17587624e-02
-1.23815152e-04
1.58621586e-04
-1.56983493e-04
1.87723262e-02
3.59678444e-02
4.59729718e-02
-3.53207546e-05
7.16993428e-02
1.05228093e-01
1.25094537e-01
1.36281247e-01
7.54955734e-02
5.51290251e-06
-3.76675491e-04
1.05672094e-01
1.52294390e-01
1.34640430e-01
2.12088380e-01
2.59883323e-01
2.25802418e-01
1.36483375e-01
1.25144878e-01
1.34884752e-01
1.48015556e-01
1.55381924e-01
1.93120141e-01
2.20275523e-01
2.48841440e-01
2.59767446e-01
2.12453970e-01
1.55353165e-01
1.76656793e-01
1.55082693e-01
1.83676175e-01
2.10809963e-01
2.42302273e-01
2.20469161e-01
1.92786538e-01
1.55277714e-01
2.04448821e-01
1.89193104e-01
2.61396687e-01
3.08321274e-01
2.71570231e-01
2.10703096e-01
1.83599013e-01
1.88868217e-01
1.80134277e-01
1.50084291e-01
2.29953744e-01
2.85852195e-01
3.07934264e-01
3.08000562e-01
2.61955588e-01
1.50120401e-01
1.01025205e-01
3.54148215e-02
1.34187074e-01
2.14284620e-01
2.63665853e-01
2.85838706e-01
2.29914027e-01
3.54459085e-02
1.84712929e-02
-3.79311856e-04
1.51584764e-04
-5.45038944e-05
1.28860445e-01
2.14256035e-01
1.34239167e-01
-1.40097962e-04
7.55724838e-02
1.36146769e-01
1.76163699e-01
2.13129225e-01
1.28335513e-01
-2.65706272e-04
-4.53434936e-04
1.36100511e-01
2.26105134e-01
2.59716192e-01
2.83123542e-01
2.99282490e-01
2.65200618e-01
2.12984874e-01
1.76378806e-01
2.59877179e-01
2.48452973e-01
2.20304330e-01
2.99096764e-01
3.42759077e-01
3.27568701e-01
2.99229172e-01
2.82849343e-01
2.19743696e-01
2.43601710e-01
2.09497242e-01
3.16466383e-01
3.52252755e-01
3.49826690e-01
3.42471684e-01
3.00627448e-01
2.09858099e-01
2.72146547e-01
3.07675294e-01
3.46314170e-01
3.64022121e-01
3.60984515e-01
3.52765919e-01
3.15201429e-01
3.07683830e-01
3.07675959e-01
2.85690011e-01
3.33098891e-01
3.59038328e-01
3.67754741e-01
3.63967363e-01
3.46143286e-01
2.85692888e-01
2.63400011e-01
2.13950344e-01
2.74421195e-01
3.13699679e-01
3.47285386e-01
3.58982414e-01
3.33176428e-01
2.13816661e-01
1.29429028e-01
-3.76446189e-04
7.96375373e-04
-6.88246676e-04
2.23440156e-01
3.14213662e-01
2.74442405e-01
-8.22383880e-04
1.30844105e-01
2.12969866e-01
1.89703353e-01
1.21349377e-01
7.22520145e-02
-2.04192044e-03
2.05317245e-03
2.13157520e-01
2.65324203e-01
2.99242071e-01
3.00267745e-01
2.85791734e-01
2.25999269e-01
1.21202004e-01
1.86695072e-01
2.99173391e-01
3.27008006e-01
3.42993009e-01
4.11613032e-01
3.79987098e-01
3.95975402e-01
2.85266593e-01
2.99341065e-01
3.42524682e-01
3.48850418e-01
3.52123603e-01
4.10817622e-01
3.84359158e-01
3.83740129e-01
3.79316195e-01
4.12223481e-01
3.52116838e-01
3.61035794e-01
3.63826725e-01
3.88802081e-01
3.81723201e-01
3.90023438e-01
3.84340298e-01
4.10770223e-01
3.63821918e-01
3.67759383e-01
3.58916900e-01
3.60110522e-01
3.50387499e-01
3.71426182e-01
3.81775271e-01
3.88808827e-01
3.58930898e-01
3.47317721e-01
3.13771023e-01
3.06578858e-01
2.94859593e-01
3.29310756e-01
3.50433078e-01
3.60063342e-01
3.14612754e-01
2.22874849e-01
-4.36905775e-04
-4.60489027e-04
-6.32759133e-04
1.94790265e-01
2.95648530e-01
3.06787373e-01
-4.36904359e-04
6.96323771e-02
1.22973205e-01
1.19478111e-01
9.92374133e-02
4.49735911e-02
-1.01147325e-03
-1.51782170e-03
1.21272815e-01
2.27230990e-01
2.85925356e-01
2.76893327e-01
2.56831878e-01
2.00883704e-01
9.68888800e-02
1.21589439e-01
2.85076287e-01
3.96388792e-01
3.79827451e-01
3.82543626e-01
3.32217629e-01
3.04753075e-01
2.56320777e-01
2.74624471e-01
3.79411243e-01
3.83573242e-01
3.84380953e-01
3.65490919e-01
3.04833899e-01
4.02331595e-01
3.32708118e-01
3.82415539e-01
3.84429725e-01
3.90046144e-01
3.82032315e-01
3.69280122e-01
3.05961985e-01
3.18447677e-01
3.05338254e-01
3.65457067e-01
3.82295219e-01
3.71505079e-01
3.50999663e-01
3.26189505e-01
2.58757504e-01
2.94178081e-01
3.05986438e-01
3.69103743e-01
3.51057254e-01
3.30115767e-01
2.95602239e-01
2.43530822e-01
1.52973946e-01
2.12751375e-01
2.58672882e-01
3.26741413e-01
2.96863597e-01
1.93652629e-01
4.92070950e-04
-2.38179804e-03
-7.13848084e-04
8.04162543e-02
1.54461783e-01
2.41914067e-01
-1.32610747e-03
4.71624853e-02
9.88017178e-02
1.33268840e-01
1.49972996e-01
3.78428429e-02
-2.65799399e-03
2.03065959e-03
9.76118951e-02
1.98477385e-01
2.56479566e-01
3.23794977e-01
2.15257335e-01
2.13917722e-01
1.48731614e-01
1.29846074e-01
2.54329228e-01
3.05502260e-01
3.31451796e-01
3.66507851e-01
2.13027116e-01
2.28285361e-01
2.14195240e-01
3.26623538e-01
3.32699909e-01
4.02437352e-01
3.05402629e-01
2.31857236e-01
1.06572963e-01
1.74339707e-01
2.14663713e-01
3.65216699e-01
3.05837962e-01
3.17851742e-01
3.06410327e-01
2.69621533e-01
2.22176849e-01
1.95974110e-01
1.08358426e-01
2.32731110e-01
3.06225472e-01
2.94539159e-01
2.58986096e-01
2.48795534e-01
2.22397781e-01
2.26570049e-01
2.21919512e-01
2.70087709e-01
2.59193737e-01
2.12379552e-01
1.53920350e-01
1.63206341e-01
1.61594822e-01
1.95296276e-01
2.22823250e-01
2.48454965e-01
1.54270946e-01
8.25664449e-02
-4.52628658e-04
1.56747008e-04
-4.36389091e-04
8.66892713e-02
1.62159234e-01
1.63802268e-01
-3.39881863e-03
4.00146366e-02
1.48385560e-01
1.82716032e-01
6.26230626e-05
2.91049328e-03
-3.27994631e-03
9.76789775e-05
1.47663694e-01
2.15267927e-01
2.13709261e-01
1.44942491e-01
1.05095019e-04
-4.91819555e-04
8.09265662e-04
1.79552791e-01
2.13913544e-01
2.26040711e-01
2.13363197e-01
1.27757023e-01
5.87153188e-05
-5.06202284e-04
2.75198033e-04
1.44898992e-01
2.13923370e-01
1.75032722e-01
1.08314258e-01
5.77690145e-02
-9.07059309e-04
2.23756377e-04
6.71443399e-05
1.28378240e-01
1.08500602e-01
1.96953976e-01
2.21880652e-01
1.45102943e-01
-2.42384901e-04
6.07351660e-04
-4.68205089e-04
5.88431900e-02
2.21898285e-01
2.26791215e-01
2.22250844e-01
1.61101611e-01
-6.47072682e-05
1.04371785e-04
1.09483787e-04
1.44737055e-01
2.22846880e-01
1.96689776e-01
1.61362037e-01
9.13401348e-02
-1.29478026e-03
1.44983546e-03
-4.67253193e-04
1.61998914e-01
1.63559387e-01
8.52769180e-02
7.12223480e-04
-1.95016132e-03
-4.54905120e-04
-2.28983420e-03
6.95482288e-04
8.85740771e-02
 
