# vtk DataFile Version 3.0 
Date: 5/2/2016   Time: 21:25
ASCII 
DATASET UNSTRUCTURED_GRID 
 
POINTS 1200 float 
0.100000 0.500000 0.000000 
0.150000 0.450000 0.000000 
0.200000 0.400000 0.000000 
0.200000 0.450000 0.000000 
0.200000 0.500000 0.000000 
0.150000 0.500000 0.000000 
0.300000 0.200000 0.000000 
0.300000 0.250000 0.000000 
0.300000 0.300000 0.000000 
0.250000 0.300000 0.000000 
0.200000 0.300000 0.000000 
0.250000 0.250000 0.000000 
0.300000 0.600000 0.000000 
0.300000 0.650000 0.000000 
0.300000 0.700000 0.000000 
0.250000 0.700000 0.000000 
0.200000 0.700000 0.000000 
0.250000 0.650000 0.000000 
0.200000 0.900000 0.000000 
0.150000 0.900000 0.000000 
0.100000 0.900000 0.000000 
0.150000 0.850000 0.000000 
0.200000 0.800000 0.000000 
0.200000 0.850000 0.000000 
0.400000 0.200000 0.000000 
0.400000 0.250000 0.000000 
0.400000 0.300000 0.000000 
0.350000 0.300000 0.000000 
0.300000 0.300000 0.000000 
0.350000 0.250000 0.000000 
0.400000 0.100000 0.000000 
0.400000 0.050000 0.000000 
0.400000 0.000000 0.000000 
0.450000 0.000000 0.000000 
0.500000 0.000000 0.000000 
0.450000 0.050000 0.000000 
0.100000 0.800000 0.000000 
0.150000 0.800000 0.000000 
0.200000 0.800000 0.000000 
0.150000 0.850000 0.000000 
0.100000 0.900000 0.000000 
0.100000 0.850000 0.000000 
0.200000 0.200000 0.000000 
0.250000 0.150000 0.000000 
0.300000 0.100000 0.000000 
0.300000 0.150000 0.000000 
0.300000 0.200000 0.000000 
0.250000 0.200000 0.000000 
0.600000 0.300000 0.000000 
0.650000 0.250000 0.000000 
0.700000 0.200000 0.000000 
0.700000 0.250000 0.000000 
0.700000 0.300000 0.000000 
0.650000 0.300000 0.000000 
0.600000 0.100000 0.000000 
0.550000 0.100000 0.000000 
0.500000 0.100000 0.000000 
0.550000 0.050000 0.000000 
0.600000 0.000000 0.000000 
0.600000 0.050000 0.000000 
0.800000 0.400000 0.000000 
0.800000 0.350000 0.000000 
0.800000 0.300000 0.000000 
0.850000 0.300000 0.000000 
0.900000 0.300000 0.000000 
0.850000 0.350000 0.000000 
0.100000 0.100000 0.000000 
0.050000 0.150000 0.000000 
0.000000 0.200000 0.000000 
0.000000 0.150000 0.000000 
0.000000 0.100000 0.000000 
0.050000 0.100000 0.000000 
0.100000 0.200000 0.000000 
0.150000 0.200000 0.000000 
0.200000 0.200000 0.000000 
0.150000 0.250000 0.000000 
0.100000 0.300000 0.000000 
0.100000 0.250000 0.000000 
0.200000 0.100000 0.000000 
0.150000 0.100000 0.000000 
0.100000 0.100000 0.000000 
0.150000 0.050000 0.000000 
0.200000 0.000000 0.000000 
0.200000 0.050000 0.000000 
0.300000 0.100000 0.000000 
0.350000 0.100000 0.000000 
0.400000 0.100000 0.000000 
0.350000 0.150000 0.000000 
0.300000 0.200000 0.000000 
0.300000 0.150000 0.000000 
0.600000 0.700000 0.000000 
0.600000 0.650000 0.000000 
0.600000 0.600000 0.000000 
0.650000 0.600000 0.000000 
0.700000 0.600000 0.000000 
0.650000 0.650000 0.000000 
0.100000 0.200000 0.000000 
0.100000 0.250000 0.000000 
0.100000 0.300000 0.000000 
0.050000 0.300000 0.000000 
0.000000 0.300000 0.000000 
0.050000 0.250000 0.000000 
0.300000 0.500000 0.000000 
0.300000 0.450000 0.000000 
0.300000 0.400000 0.000000 
0.350000 0.400000 0.000000 
0.400000 0.400000 0.000000 
0.350000 0.450000 0.000000 
0.200000 0.300000 0.000000 
0.200000 0.350000 0.000000 
0.200000 0.400000 0.000000 
0.150000 0.400000 0.000000 
0.100000 0.400000 0.000000 
0.150000 0.350000 0.000000 
0.100000 0.200000 0.000000 
0.100000 0.150000 0.000000 
0.100000 0.100000 0.000000 
0.150000 0.100000 0.000000 
0.200000 0.100000 0.000000 
0.150000 0.150000 0.000000 
0.200000 0.300000 0.000000 
0.250000 0.300000 0.000000 
0.300000 0.300000 0.000000 
0.250000 0.350000 0.000000 
0.200000 0.400000 0.000000 
0.200000 0.350000 0.000000 
0.100000 0.600000 0.000000 
0.150000 0.600000 0.000000 
0.200000 0.600000 0.000000 
0.150000 0.650000 0.000000 
0.100000 0.700000 0.000000 
0.100000 0.650000 0.000000 
0.000000 0.400000 0.000000 
0.050000 0.350000 0.000000 
0.100000 0.300000 0.000000 
0.100000 0.350000 0.000000 
0.100000 0.400000 0.000000 
0.050000 0.400000 0.000000 
0.000000 0.500000 0.000000 
0.050000 0.500000 0.000000 
0.100000 0.500000 0.000000 
0.050000 0.550000 0.000000 
0.000000 0.600000 0.000000 
0.000000 0.550000 0.000000 
0.200000 0.600000 0.000000 
0.250000 0.600000 0.000000 
0.300000 0.600000 0.000000 
0.250000 0.650000 0.000000 
0.200000 0.700000 0.000000 
0.200000 0.650000 0.000000 
0.400000 0.700000 0.000000 
0.400000 0.750000 0.000000 
0.400000 0.800000 0.000000 
0.350000 0.800000 0.000000 
0.300000 0.800000 0.000000 
0.350000 0.750000 0.000000 
0.200000 0.900000 0.000000 
0.150000 0.950000 0.000000 
0.100000 1.000000 0.000000 
0.100000 0.950000 0.000000 
0.100000 0.900000 0.000000 
0.150000 0.900000 0.000000 
0.400000 0.500000 0.000000 
0.450000 0.450000 0.000000 
0.500000 0.400000 0.000000 
0.500000 0.450000 0.000000 
0.500000 0.500000 0.000000 
0.450000 0.500000 0.000000 
0.200000 0.800000 0.000000 
0.250000 0.800000 0.000000 
0.300000 0.800000 0.000000 
0.250000 0.850000 0.000000 
0.200000 0.900000 0.000000 
0.200000 0.850000 0.000000 
0.400000 0.500000 0.000000 
0.400000 0.450000 0.000000 
0.400000 0.400000 0.000000 
0.450000 0.400000 0.000000 
0.500000 0.400000 0.000000 
0.450000 0.450000 0.000000 
0.600000 0.300000 0.000000 
0.550000 0.300000 0.000000 
0.500000 0.300000 0.000000 
0.550000 0.250000 0.000000 
0.600000 0.200000 0.000000 
0.600000 0.250000 0.000000 
0.600000 0.500000 0.000000 
0.600000 0.550000 0.000000 
0.600000 0.600000 0.000000 
0.550000 0.600000 0.000000 
0.500000 0.600000 0.000000 
0.550000 0.550000 0.000000 
0.500000 0.700000 0.000000 
0.450000 0.750000 0.000000 
0.400000 0.800000 0.000000 
0.400000 0.750000 0.000000 
0.400000 0.700000 0.000000 
0.450000 0.700000 0.000000 
0.600000 0.700000 0.000000 
0.650000 0.700000 0.000000 
0.700000 0.700000 0.000000 
0.650000 0.750000 0.000000 
0.600000 0.800000 0.000000 
0.600000 0.750000 0.000000 
0.000000 1.000000 0.000000 
0.000000 0.950000 0.000000 
0.000000 0.900000 0.000000 
0.050000 0.900000 0.000000 
0.100000 0.900000 0.000000 
0.050000 0.950000 0.000000 
0.600000 0.500000 0.000000 
0.650000 0.500000 0.000000 
0.700000 0.500000 0.000000 
0.650000 0.550000 0.000000 
0.600000 0.600000 0.000000 
0.600000 0.550000 0.000000 
0.400000 0.900000 0.000000 
0.450000 0.900000 0.000000 
0.500000 0.900000 0.000000 
0.450000 0.950000 0.000000 
0.400000 1.000000 0.000000 
0.400000 0.950000 0.000000 
0.900000 1.000000 0.000000 
0.950000 0.950000 0.000000 
1.000000 0.900000 0.000000 
1.000000 0.950000 0.000000 
1.000000 1.000000 0.000000 
0.950000 1.000000 0.000000 
0.600000 1.000000 0.000000 
0.550000 1.000000 0.000000 
0.500000 1.000000 0.000000 
0.550000 0.950000 0.000000 
0.600000 0.900000 0.000000 
0.600000 0.950000 0.000000 
1.000000 0.800000 0.000000 
1.000000 0.850000 0.000000 
1.000000 0.900000 0.000000 
0.950000 0.900000 0.000000 
0.900000 0.900000 0.000000 
0.950000 0.850000 0.000000 
0.700000 0.800000 0.000000 
0.700000 0.850000 0.000000 
0.700000 0.900000 0.000000 
0.650000 0.900000 0.000000 
0.600000 0.900000 0.000000 
0.650000 0.850000 0.000000 
0.600000 0.200000 0.000000 
0.600000 0.150000 0.000000 
0.600000 0.100000 0.000000 
0.650000 0.100000 0.000000 
0.700000 0.100000 0.000000 
0.650000 0.150000 0.000000 
0.900000 0.600000 0.000000 
0.900000 0.550000 0.000000 
0.900000 0.500000 0.000000 
0.950000 0.500000 0.000000 
1.000000 0.500000 0.000000 
0.950000 0.550000 0.000000 
0.700000 0.300000 0.000000 
0.700000 0.350000 0.000000 
0.700000 0.400000 0.000000 
0.650000 0.400000 0.000000 
0.600000 0.400000 0.000000 
0.650000 0.350000 0.000000 
0.900000 0.400000 0.000000 
0.900000 0.350000 0.000000 
0.900000 0.300000 0.000000 
0.950000 0.300000 0.000000 
1.000000 0.300000 0.000000 
0.950000 0.350000 0.000000 
0.700000 0.200000 0.000000 
0.700000 0.150000 0.000000 
0.700000 0.100000 0.000000 
0.750000 0.100000 0.000000 
0.800000 0.100000 0.000000 
0.750000 0.150000 0.000000 
1.000000 0.200000 0.000000 
1.000000 0.250000 0.000000 
1.000000 0.300000 0.000000 
0.950000 0.300000 0.000000 
0.900000 0.300000 0.000000 
0.950000 0.250000 0.000000 
0.800000 0.100000 0.000000 
0.800000 0.050000 0.000000 
0.800000 0.000000 0.000000 
0.850000 0.000000 0.000000 
0.900000 0.000000 0.000000 
0.850000 0.050000 0.000000 
0.900000 0.400000 0.000000 
0.950000 0.400000 0.000000 
1.000000 0.400000 0.000000 
0.950000 0.450000 0.000000 
0.900000 0.500000 0.000000 
0.900000 0.450000 0.000000 
0.800000 0.300000 0.000000 
0.850000 0.250000 0.000000 
0.900000 0.200000 0.000000 
0.900000 0.250000 0.000000 
0.900000 0.300000 0.000000 
0.850000 0.300000 0.000000 
0.000000 0.100000 0.000000 
0.000000 0.050000 0.000000 
0.000000 0.000000 0.000000 
0.050000 0.000000 0.000000 
0.100000 0.000000 0.000000 
0.050000 0.050000 0.000000 
0.100000 0.100000 0.000000 
0.050000 0.100000 0.000000 
0.000000 0.100000 0.000000 
0.050000 0.050000 0.000000 
0.100000 0.000000 0.000000 
0.100000 0.050000 0.000000 
0.200000 0.200000 0.000000 
0.200000 0.150000 0.000000 
0.200000 0.100000 0.000000 
0.250000 0.100000 0.000000 
0.300000 0.100000 0.000000 
0.250000 0.150000 0.000000 
0.200000 0.200000 0.000000 
0.150000 0.200000 0.000000 
0.100000 0.200000 0.000000 
0.150000 0.150000 0.000000 
0.200000 0.100000 0.000000 
0.200000 0.150000 0.000000 
0.200000 0.000000 0.000000 
0.150000 0.050000 0.000000 
0.100000 0.100000 0.000000 
0.100000 0.050000 0.000000 
0.100000 0.000000 0.000000 
0.150000 0.000000 0.000000 
0.100000 0.200000 0.000000 
0.050000 0.200000 0.000000 
0.000000 0.200000 0.000000 
0.050000 0.150000 0.000000 
0.100000 0.100000 0.000000 
0.100000 0.150000 0.000000 
0.200000 0.100000 0.000000 
0.200000 0.050000 0.000000 
0.200000 0.000000 0.000000 
0.250000 0.000000 0.000000 
0.300000 0.000000 0.000000 
0.250000 0.050000 0.000000 
0.200000 0.100000 0.000000 
0.250000 0.050000 0.000000 
0.300000 0.000000 0.000000 
0.300000 0.050000 0.000000 
0.300000 0.100000 0.000000 
0.250000 0.100000 0.000000 
0.300000 0.000000 0.000000 
0.350000 0.000000 0.000000 
0.400000 0.000000 0.000000 
0.350000 0.050000 0.000000 
0.300000 0.100000 0.000000 
[...]
CELL_DATA 200
FIELD FieldData 1
material 1 200 int
1
1
1
1
1
1
1
1
1
1
1
1
1
1
1
1
1
1
1
1
1
1
1
1
1
1
1
1
1
1
1
1
1
1
1
1
1
1
1
1
1
1
1
1
1
1
1
1
1
1
1
1
1
1
1
1
1
1
1
1
1
1
1
1
1
1
1
1
1
1
1
1
1
1
1
1
1
1
1
1
1
1
1
1
1
1
1
1
1
1
1
1
1
1
1
1
1
1
1
1
1
1
1
1
1
1
1
1
1
1
1
1
1
1
1
1
1
1
1
1
1
1
1
1
1
1
1
1
1
1
1
1
1
1
1
1
1
1
1
1
1
1
1
1
1
1
1
1
1
1
1
1
1
1
1
1
1
1
1
1
1
1
1
1
1
1
1
1
1
1
1
1
1
1
1
1
1
1
1
1
1
1
1
1
1
1
1
1
1
1
1
1
1
1
1
1
1
1
1
1
POINT_DATA 1200 SCALARS flux_g1 double 
LOOKUP_TABLE   default 
1.41206601e-01
2.05140104e-01
2.41466041e-01
2.51173087e-01
2.51365080e-01
2.04162225e-01
2.11132859e-01
2.50568520e-01
2.77132868e-01
2.50568520e-01
2.11132859e-01
2.30564590e-01
3.16909455e-01
3.03387499e-01
2.77102559e-01
2.50757932e-01
2.10861187e-01
2.72137552e-01
9.04773997e-02
7.36606183e-02
5.04689053e-02
9.84231887e-02
1.61257136e-01
1.30571359e-01
2.41224410e-01
2.86430043e-01
3.16709117e-01
3.03358250e-01
2.77161412e-01
2.76770512e-01
1.35906390e-01
7.54824762e-02
-6.85928026e-05
2.60092554e-04
-2.80076888e-04
8.00117641e-02
9.04773997e-02
1.30571359e-01
1.61257136e-01
9.84231887e-02
5.04689053e-02
7.36606183e-02
1.60932154e-01
1.60478476e-01
1.18722843e-01
1.71393033e-01
2.11167738e-01
1.90833372e-01
3.16909455e-01
2.72137552e-01
2.10861187e-01
2.50757932e-01
2.77102559e-01
3.03387499e-01
1.35756588e-01
1.41179721e-01
1.41681003e-01
7.69548501e-02
-2.79047825e-04
7.54064667e-02
2.41574228e-01
2.31086554e-01
2.11138130e-01
1.71585450e-01
1.18452164e-01
1.84458093e-01
5.08842963e-02
5.08822997e-02
-1.29149627e-04
2.86668465e-04
-8.54795613e-05
2.84965231e-02
9.04273851e-02
1.30858472e-01
1.60856082e-01
1.60786498e-01
1.18644205e-01
1.07648853e-01
9.05481010e-02
7.32863334e-02
5.09894120e-02
5.04743832e-02
-2.31213549e-05
5.00795681e-02
1.18713249e-01
1.30258537e-01
1.35554350e-01
1.91233738e-01
2.11188057e-01
1.71648727e-01
3.16676969e-01
3.46760559e-01
3.61940680e-01
3.46760559e-01
3.16676969e-01
3.33659016e-01
9.06223413e-02
1.07223070e-01
1.18815329e-01
6.58326687e-02
-8.46286453e-05
6.65184937e-02
3.29777995e-01
3.29958236e-01
3.16663143e-01
3.46885179e-01
3.61944595e-01
3.61748511e-01
2.11251620e-01
2.31056645e-01
2.41319841e-01
1.95945541e-01
1.35619750e-01
1.90977477e-01
9.04214490e-02
7.37276762e-02
5.08327959e-02
7.37276762e-02
9.04214490e-02
1.14001942e-01
2.11086988e-01
2.50810159e-01
2.77108608e-01
2.76978079e-01
2.41172759e-01
2.31371852e-01
1.35699752e-01
1.96010064e-01
2.41550663e-01
1.84557682e-01
1.18426616e-01
1.30226322e-01
-1.48950014e-04
7.62790103e-02
1.18952267e-01
1.29852534e-01
1.35772526e-01
7.53059715e-02
-6.55802005e-05
7.85808251e-02
1.41628709e-01
7.71561975e-02
-3.31211011e-04
2.49524380e-04
2.41269371e-01
2.86481063e-01
3.16896109e-01
2.72188115e-01
2.10849372e-01
2.31342499e-01
3.16896109e-01
2.86481063e-01
2.41269371e-01
2.31342499e-01
2.10849372e-01
2.72188115e-01
9.09515578e-02
3.08372756e-02
-4.67362739e-04
2.84303189e-02
5.09035037e-02
7.33445433e-02
3.76983153e-01
3.92771360e-01
3.76983153e-01
3.92685902e-01
3.92712348e-01
3.92685902e-01
1.60860880e-01
1.90884396e-01
2.11469961e-01
1.49611916e-01
9.01115456e-02
1.30794548e-01
3.76969945e-01
3.77034635e-01
3.61909521e-01
3.77034635e-01
3.76969945e-01
3.92823631e-01
3.16693538e-01
3.29767223e-01
3.30049614e-01
2.97556905e-01
2.41089396e-01
2.86524416e-01
3.76969945e-01
3.77034635e-01
3.61909521e-01
3.77034635e-01
3.76969945e-01
3.92823631e-01
3.30049614e-01
2.97556905e-01
2.41089396e-01
2.86524416e-01
3.16693538e-01
3.29767223e-01
3.16709117e-01
3.03358250e-01
2.77161412e-01
2.76770512e-01
2.41224410e-01
2.86430043e-01
-5.00411502e-04
2.11176458e-04
-4.85059435e-05
2.81378394e-02
5.14166594e-02
2.88101313e-03
3.77012214e-01
3.61259474e-01
3.29804244e-01
3.61644053e-01
3.61971271e-01
3.76929775e-01
1.35756588e-01
1.41179721e-01
1.41681003e-01
7.69548501e-02
-2.79047825e-04
7.54064667e-02
-8.36562708e-05
2.86084431e-02
-8.36562708e-05
2.93155734e-04
-1.00558237e-04
2.93155734e-04
-6.85928026e-05
2.60092554e-04
-2.80076888e-04
8.00117641e-02
1.35906390e-01
7.54824762e-02
-1.29149627e-04
2.86668465e-04
-8.54795613e-05
2.84965231e-02
5.08842963e-02
5.08822997e-02
2.11188057e-01
1.71648727e-01
1.18713249e-01
1.30258537e-01
1.35554350e-01
1.91233738e-01
2.41550663e-01
1.96010064e-01
1.35699752e-01
1.30226322e-01
1.18426616e-01
1.84557682e-01
1.35971890e-01
1.41171373e-01
1.41419364e-01
7.84981512e-02
-2.14261906e-04
7.97582019e-02
2.76889367e-01
3.03549098e-01
3.16679341e-01
3.46789518e-01
3.62079655e-01
3.30909613e-01
1.36080738e-01
1.29878863e-01
1.18784972e-01
6.60299992e-02
-3.43462140e-04
6.78675554e-02
2.11459933e-01
1.71457126e-01
1.18742869e-01
1.07596230e-01
9.00992657e-02
1.49659374e-01
-4.31330281e-04
2.29559621e-04
-5.74904572e-05
6.59240802e-02
1.19145646e-01
5.25913186e-02
9.09377535e-02
5.01698087e-02
-5.15960354e-05
2.22856378e-04
-4.78844751e-04
3.08830375e-02
1.35756588e-01
7.54064667e-02
-2.79047825e-04
7.69548501e-02
1.41681003e-01
1.41179721e-01
2.11459933e-01
1.49659374e-01
9.00992657e-02
1.07596230e-01
1.18742869e-01
1.71457126e-01
-8.36562708e-05
2.93155734e-04
-1.00558237e-04
2.93155734e-04
-8.36562708e-05
2.86084431e-02
5.09737471e-02
2.80433556e-02
3.76936334e-05
2.81491271e-02
3.76936334e-05
2.80433556e-02
1.60856082e-01
1.30858472e-01
9.04273851e-02
1.07648853e-01
1.18644205e-01
1.60786498e-01
1.60910603e-01
1.30508134e-01
9.05115912e-02
1.13644911e-01
9.05115912e-02
1.30508134e-01
-1.29149627e-04
5.08822997e-02
5.08842963e-02
2.84965231e-02
-8.54795613e-05
2.86668465e-04
9.05481010e-02
5.00795681e-02
-2.31213549e-05
5.04743832e-02
5.09894120e-02
7.32863334e-02
9.05312241e-02
5.04434271e-02
-7.93600510e-05
2.79754583e-04
-1.78384102e-04
6.68770987e-02
9.06223413e-02
6.65184937e-02
-8.46286453e-05
6.58326687e-02
1.18815329e-01
1.07223070e-01
-7.25459607e-05
2.70401540e-04
-2.28955615e-04
7.65853298e-02
1.18873742e-01
6.61029031e-02
-3.43462140e-04
6.60299992e-02
1.18784972e-01
1.29878863e-01
1.36080738e-01
6.78675554e-02
3.16760536e-01
2.86576608e-01
2.41253911e-01
2.51468453e-01
2.51171683e-01
2.99256915e-01
1.41628709e-01
7.85808251e-02
-6.55802005e-05
2.49524380e-04
-3.31211011e-04
7.71561975e-02
2.41415668e-01
1.96105241e-01
1.35685168e-01
1.41557588e-01
1.41154870e-01
2.05343924e-01
1.18952267e-01
7.62790103e-02
-1.48950014e-04
7.53059715e-02
1.35772526e-01
1.29852534e-01
2.41466041e-01
2.05140104e-01
1.41206601e-01
2.04162225e-01
2.51365080e-01
2.51173087e-01
1.35971890e-01
7.97582019e-02
-2.14261906e-04
7.84981512e-02
1.41419364e-01
1.41171373e-01
3.29895787e-01
3.29757711e-01
3.16800449e-01
2.99101617e-01
2.51209801e-01
2.98415710e-01
2.11251620e-01
1.90977477e-01
1.35619750e-01
1.95945541e-01
2.41319841e-01
2.31056645e-01
3.77012214e-01
3.76929775e-01
3.61971271e-01
3.61644053e-01
3.29804244e-01
3.61259474e-01
3.16637340e-01
3.03578725e-01
2.77071881e-01
3.03578725e-01
3.16637340e-01
3.33815429e-01
3.16528865e-01
3.60779976e-01
3.77091466e-01
3.61288923e-01
3.29865926e-01
3.29948897e-01
3.16896109e-01
2.86481063e-01
2.41269371e-01
2.31342499e-01
2.10849372e-01
2.72188115e-01
2.41172759e-01
2.76978079e-01
2.77108608e-01
2.50810159e-01
2.11086988e-01
2.31371852e-01
3.16709117e-01
2.86430043e-01
2.41224410e-01
2.76770512e-01
2.77161412e-01
3.03358250e-01
3.16676969e-01
3.46760559e-01
3.61940680e-01
3.46760559e-01
3.16676969e-01
3.33659016e-01
3.16663143e-01
3.29958236e-01
3.29777995e-01
3.61748511e-01
3.61944595e-01
3.46885179e-01
1.41346960e-01
2.04226105e-01
2.51536208e-01
2.03118800e-01
1.35445842e-01
1.41546918e-01
2.41253911e-01
2.86576608e-01
3.16760536e-01
2.99256915e-01
2.51171683e-01
2.51468453e-01
1.41154870e-01
1.41557588e-01
1.35685168e-01
1.96105241e-01
2.41415668e-01
2.05343924e-01
1.18713249e-01
1.71648727e-01
2.11188057e-01
1.91233738e-01
1.35554350e-01
1.30258537e-01
1.60932154e-01
1.90833372e-01
2.11167738e-01
1.71393033e-01
1.18722843e-01
1.60478476e-01
1.60811120e-01
1.91169834e-01
2.11067955e-01
2.30823718e-01
2.11067955e-01
1.91169834e-01
-7.93600510e-05
5.04434271e-02
9.05312241e-02
6.68770987e-02
-1.78384102e-04
2.79754583e-04
-7.25459607e-05
6.61029031e-02
1.18873742e-01
7.65853298e-02
-2.28955615e-04
2.70401540e-04
-6.85928026e-05
7.54824762e-02
1.35906390e-01
8.00117641e-02
-2.80076888e-04
2.60092554e-04
-2.79047825e-04
7.69548501e-02
1.41681003e-01
1.41179721e-01
1.35756588e-01
7.54064667e-02
-2.14261906e-04
7.97582019e-02
1.35971890e-01
1.41171373e-01
1.41419364e-01
7.84981512e-02
2.41574228e-01
2.31086554e-01
2.11138130e-01
1.71585450e-01
1.18452164e-01
1.84458093e-01
2.77380941e-01
2.50619037e-01
2.11116754e-01
1.91117612e-01
1.60529748e-01
2.22840797e-01
9.00992657e-02
1.07596230e-01
1.18742869e-01
1.71457126e-01
2.11459933e-01
1.49659374e-01
2.11116754e-01
2.50619037e-01
2.77380941e-01
2.22840797e-01
1.60529748e-01
1.91117612e-01
-6.19396031e-05
7.53951798e-02
1.36041447e-01
6.80169143e-02
-3.82218017e-04
2.39032703e-04
1.36080738e-01
1.29878863e-01
1.18784972e-01
6.60299992e-02
-3.43462140e-04
6.78675554e-02
2.11469961e-01
1.90884396e-01
1.60860880e-01
1.30794548e-01
9.01115456e-02
1.49611916e-01
-5.74904572e-05
6.59240802e-02
1.19145646e-01
5.25913186e-02
-4.31330281e-04
2.29559621e-04
-5.15960354e-05
5.01698087e-02
9.09377535e-02
3.08830375e-02
-4.78844751e-04
2.22856378e-04
-5.00411502e-04
2.88101313e-03
5.14166594e-02
2.81378394e-02
-4.85059435e-05
2.11176458e-04
-4.67362739e-04
3.08372756e-02
9.09515578e-02
7.33445433e-02
5.09035037e-02
2.84303189e-02
-4.06332977e-04
5.24939753e-02
1.19172095e-01
1.07269848e-01
9.05023643e-02
5.03687565e-02
1.18742869e-01
1.07596230e-01
9.00992657e-02
1.49659374e-01
2.11459933e-01
1.71457126e-01
1.19172095e-01
5.24939753e-02
-4.06332977e-04
5.03687565e-02
9.05023643e-02
1.07269848e-01
1.36041447e-01
7.53951798e-02
-6.19396031e-05
2.39032703e-04
-3.82218017e-04
6.80169143e-02
-5.15960354e-05
2.22856378e-04
-4.78844751e-04
3.08830375e-02
9.09377535e-02
5.01698087e-02
-5.74904572e-05
2.29559621e-04
-4.31330281e-04
5.25913186e-02
1.19145646e-01
6.59240802e-02
1.36080738e-01
6.78675554e-02
-3.43462140e-04
6.60299992e-02
1.18784972e-01
1.29878863e-01
2.11138130e-01
2.31086554e-01
2.41574228e-01
1.84458093e-01
1.18452164e-01
1.71585450e-01
2.77102559e-01
3.03387499e-01
3.16909455e-01
2.72137552e-01
2.10861187e-01
2.50757932e-01
1.41628709e-01
7.85808251e-02
-6.55802005e-05
2.49524380e-04
-3.31211011e-04
7.71561975e-02
2.41550663e-01
1.96010064e-01
1.35699752e-01
1.30226322e-01
1.18426616e-01
1.84557682e-01
2.41304314e-01
2.51182668e-01
2.51573182e-01
2.02967066e-01
1.35484407e-01
1.96042021e-01
3.61836131e-01
3.77025212e-01
3.76996789e-01
3.92695316e-01
3.92745357e-01
3.92482957e-01
3.16528865e-01
3.29948897e-01
3.29865926e-01
3.61288923e-01
3.77091466e-01
3.60779976e-01
2.51573182e-01
2.51182668e-01
2.41304314e-01
1.96042021e-01
1.35484407e-01
2.02967066e-01
2.51314556e-01
2.98467271e-01
3.30022788e-01
2.97660118e-01
2.41064339e-01
2.51458903e-01
3.16679341e-01
3.46789518e-01
3.62079655e-01
3.30909613e-01
2.76889367e-01
3.03549098e-01
3.77012214e-01
3.76929775e-01
3.61971271e-01
3.61644053e-01
3.29804244e-01
3.61259474e-01
2.41089396e-01
2.97556905e-01
3.30049614e-01
3.29767223e-01
3.16693538e-01
2.86524416e-01
2.51209801e-01
2.99101617e-01
3.16800449e-01
3.29757711e-01
3.29895787e-01
2.98415710e-01
3.16542014e-01
3.46855389e-01
3.61925100e-01
3.76939379e-01
3.77105025e-01
3.60727662e-01
3.29804244e-01
3.61644053e-01
3.61971271e-01
3.76929775e-01
3.77012214e-01
3.61259474e-01
2.76889367e-01
3.30909613e-01
3.62079655e-01
3.46789518e-01
3.16679341e-01
3.03549098e-01
3.16542014e-01
3.60727662e-01
3.77105025e-01
3.76939379e-01
3.61925100e-01
3.46855389e-01
2.51209801e-01
2.98415710e-01
3.29895787e-01
3.29757711e-01
3.16800449e-01
2.99101617e-01
3.16528865e-01
3.60779976e-01
3.77091466e-01
3.61288923e-01
3.29865926e-01
3.29948897e-01
3.16637340e-01
3.03578725e-01
2.77071881e-01
3.03578725e-01
3.16637340e-01
3.33815429e-01
-6.85928026e-05
7.54824762e-02
1.35906390e-01
8.00117641e-02
-2.80076888e-04
2.60092554e-04
3.61944595e-01
3.46885179e-01
3.16663143e-01
3.29958236e-01
3.29777995e-01
3.61748511e-01
2.77108608e-01
2.50810159e-01
2.11086988e-01
2.31371852e-01
2.41172759e-01
2.76978079e-01
3.30022788e-01
2.98467271e-01
2.51314556e-01
2.51458903e-01
2.41064339e-01
2.97660118e-01
2.41415668e-01
1.96105241e-01
1.35685168e-01
1.41557588e-01
1.41154870e-01
2.05343924e-01
3.16760536e-01
2.86576608e-01
2.41253911e-01
2.51468453e-01
2.51171683e-01
2.99256915e-01
1.35971890e-01
7.97582019e-02
-2.14261906e-04
7.84981512e-02
1.41419364e-01
1.41171373e-01
2.11251620e-01
1.90977477e-01
1.35619750e-01
1.95945541e-01
2.41319841e-01
2.31056645e-01
1.18644205e-01
1.60786498e-01
1.60856082e-01
1.30858472e-01
9.04273851e-02
1.07648853e-01
2.51536208e-01
2.04226105e-01
1.41346960e-01
1.41546918e-01
1.35445842e-01
2.03118800e-01
2.51365080e-01
2.51173087e-01
2.41466041e-01
2.05140104e-01
1.41206601e-01
2.04162225e-01
1.18952267e-01
7.62790103e-02
-1.48950014e-04
7.53059715e-02
1.35772526e-01
1.29852534e-01
-7.93600510e-05
2.79754583e-04
-1.78384102e-04
6.68770987e-02
9.05312241e-02
5.04434271e-02
-2.28955615e-04
7.65853298e-02
1.18873742e-01
6.61029031e-02
-7.25459607e-05
2.70401540e-04
2.11167738e-01
1.90833372e-01
1.60932154e-01
1.60478476e-01
1.18722843e-01
1.71393033e-01
2.77132868e-01
2.50568520e-01
2.11132859e-01
2.30564590e-01
2.11132859e-01
2.50568520e-01
2.41064339e-01
2.51458903e-01
2.51314556e-01
2.98467271e-01
3.30022788e-01
2.97660118e-01
1.18815329e-01
1.07223070e-01
9.06223413e-02
6.65184937e-02
-8.46286453e-05
6.58326687e-02
9.05481010e-02
5.00795681e-02
-2.31213549e-05
5.04743832e-02
5.09894120e-02
7.32863334e-02
-8.54795613e-05
2.86668465e-04
-1.29149627e-04
5.08822997e-02
5.08842963e-02
2.84965231e-02
9.05481010e-02
7.32863334e-02
5.09894120e-02
5.04743832e-02
-2.31213549e-05
5.00795681e-02
9.05115912e-02
1.30508134e-01
1.60910603e-01
1.30508134e-01
9.05115912e-02
1.13644911e-01
3.76936334e-05
2.81491271e-02
3.76936334e-05
2.80433556e-02
5.09737471e-02
2.80433556e-02
-1.78384102e-04
2.79754583e-04
-7.93600510e-05
5.04434271e-02
9.05312241e-02
6.68770987e-02
1.18815329e-01
6.58326687e-02
-8.46286453e-05
6.65184937e-02
9.06223413e-02
1.07223070e-01
2.11067955e-01
2.30823718e-01
2.11067955e-01
1.91169834e-01
1.60811120e-01
1.91169834e-01
2.77161412e-01
3.03358250e-01
3.16709117e-01
2.86430043e-01
2.41224410e-01
2.76770512e-01
9.04214490e-02
1.14001942e-01
9.04214490e-02
7.37276762e-02
5.08327959e-02
7.37276762e-02
1.60932154e-01
1.90833372e-01
2.11167738e-01
1.71393033e-01
1.18722843e-01
1.60478476e-01
1.35554350e-01
1.30258537e-01
1.18713249e-01
1.71648727e-01
2.11188057e-01
1.91233738e-01
2.11086988e-01
2.50810159e-01
2.77108608e-01
2.76978079e-01
2.41172759e-01
2.31371852e-01
1.60856082e-01
1.60786498e-01
1.18644205e-01
1.07648853e-01
9.04273851e-02
1.30858472e-01
2.11251620e-01
2.31056645e-01
2.41319841e-01
1.95945541e-01
1.35619750e-01
1.90977477e-01
-7.25459607e-05
6.61029031e-02
1.18873742e-01
7.65853298e-02
-2.28955615e-04
2.70401540e-04
1.41154870e-01
1.41557588e-01
1.35685168e-01
1.96105241e-01
2.41415668e-01
2.05343924e-01
-1.48950014e-04
7.62790103e-02
1.18952267e-01
1.29852534e-01
1.35772526e-01
7.53059715e-02
3.30049614e-01
3.29767223e-01
3.16693538e-01
2.86524416e-01
2.41089396e-01
2.97556905e-01
-3.31211011e-04
2.49524380e-04
-6.55802005e-05
7.85808251e-02
1.41628709e-01
7.71561975e-02
1.60860880e-01
1.30794548e-01
9.01115456e-02
1.49611916e-01
2.11469961e-01
1.90884396e-01
-3.82218017e-04
2.39032703e-04
-6.19396031e-05
7.53951798e-02
1.36041447e-01
6.80169143e-02
2.51573182e-01
2.51182668e-01
2.41304314e-01
1.96042021e-01
1.35484407e-01
2.02967066e-01
3.16896109e-01
2.72188115e-01
2.10849372e-01
2.31342499e-01
2.41269371e-01
2.86481063e-01
2.51536208e-01
2.03118800e-01
1.35445842e-01
1.41546918e-01
1.41346960e-01
2.04226105e-01
2.41550663e-01
1.84557682e-01
1.18426616e-01
1.30226322e-01
1.35699752e-01
1.96010064e-01
2.41466041e-01
2.51173087e-01
2.51365080e-01
2.04162225e-01
1.41206601e-01
2.05140104e-01
2.41253911e-01
2.86576608e-01
3.16760536e-01
2.99256915e-01
2.51171683e-01
2.51468453e-01
3.76983153e-01
3.92685902e-01
3.92712348e-01
3.92685902e-01
3.76983153e-01
3.92771360e-01
3.76996789e-01
3.77025212e-01
3.61836131e-01
3.92482957e-01
3.92745357e-01
3.92695316e-01
3.76996789e-01
3.77025212e-01
3.61836131e-01
3.92482957e-01
3.92745357e-01
3.92695316e-01
3.16528865e-01
3.29948897e-01
3.29865926e-01
3.61288923e-01
3.77091466e-01
3.60779976e-01
3.77105025e-01
3.76939379e-01
3.61925100e-01
3.46855389e-01
3.16542014e-01
3.60727662e-01
3.76996789e-01
3.92695316e-01
3.92745357e-01
3.92482957e-01
3.61836131e-01
3.77025212e-01
1.60529748e-01
2.22840797e-01
2.77380941e-01
2.50619037e-01
2.11116754e-01
1.91117612e-01
2.10861187e-01
2.72137552e-01
3.16909455e-01
3.03387499e-01
2.77102559e-01
2.50757932e-01
3.16800449e-01
3.29757711e-01
3.29895787e-01
2.98415710e-01
2.51209801e-01
2.99101617e-01
3.16663143e-01
3.46885179e-01
3.61944595e-01
3.61748511e-01
3.29777995e-01
3.29958236e-01
2.51314556e-01
2.51458903e-01
2.41064339e-01
2.97660118e-01
3.30022788e-01
2.98467271e-01
2.51536208e-01
2.04226105e-01
1.41346960e-01
1.41546918e-01
1.35445842e-01
2.03118800e-01
-3.82218017e-04
6.80169143e-02
1.36041447e-01
7.53951798e-02
-6.19396031e-05
2.39032703e-04
2.41304314e-01
2.51182668e-01
2.51573182e-01
2.02967066e-01
1.35484407e-01
1.96042021e-01
3.62079655e-01
3.46789518e-01
3.16679341e-01
3.03549098e-01
2.76889367e-01
3.30909613e-01
3.61925100e-01
3.76939379e-01
3.77105025e-01
3.60727662e-01
3.16542014e-01
3.46855389e-01
2.41574228e-01
1.84458093e-01
1.18452164e-01
1.71585450e-01
2.11138130e-01
2.31086554e-01
-5.74904572e-05
2.29559621e-04
-4.31330281e-04
5.25913186e-02
1.19145646e-01
6.59240802e-02
5.09035037e-02
2.84303189e-02
-4.67362739e-04
3.08372756e-02
9.09515578e-02
7.33445433e-02
2.11469961e-01
1.49611916e-01
9.01115456e-02
1.30794548e-01
1.60860880e-01
1.90884396e-01
1.19172095e-01
5.24939753e-02
-4.06332977e-04
5.03687565e-02
9.05023643e-02
1.07269848e-01
-4.78844751e-04
2.22856378e-04
-5.15960354e-05
5.01698087e-02
9.09377535e-02
3.08830375e-02
2.77380941e-01
2.22840797e-01
1.60529748e-01
1.91117612e-01
2.11116754e-01
2.50619037e-01
9.05023643e-02
5.03687565e-02
-4.06332977e-04
5.24939753e-02
1.19172095e-01
1.07269848e-01
9.04773997e-02
7.36606183e-02
5.04689053e-02
9.84231887e-02
1.61257136e-01
1.30571359e-01
5.14166594e-02
2.81378394e-02
-4.85059435e-05
2.11176458e-04
-5.00411502e-04
2.88101313e-03
1.61257136e-01
9.84231887e-02
5.04689053e-02
7.36606183e-02
9.04773997e-02
1.30571359e-01
9.09515578e-02
3.08372756e-02
-4.67362739e-04
2.84303189e-02
5.09035037e-02
7.33445433e-02
-5.00411502e-04
2.11176458e-04
-4.85059435e-05
2.81378394e-02
5.14166594e-02
2.88101313e-03
 
