# vtk DataFile Version 3.0 
Date: 5/2/2016   Time: 21:25
ASCII 
DATASET UNSTRUCTURED_GRID 
 
POINTS 512 float 
1.000000 0.000000 0.000000 
1.000000 0.080221 0.000000 
1.000000 0.160441 0.000000 
0.966941 0.155668 0.000000 
0.933882 0.150896 0.000000 
0.942203 0.075448 0.000000 
0.950524 0.000000 0.000000 
0.975262 0.000000 0.000000 
1.000000 0.160441 0.000000 
1.000000 0.393069 0.000000 
1.000000 0.625698 0.000000 
0.967703 0.537498 0.000000 
0.935406 0.449299 0.000000 
0.934644 0.300098 0.000000 
0.933882 0.150896 0.000000 
0.966941 0.155668 0.000000 
1.000000 0.625698 0.000000 
1.000000 0.660959 0.000000 
1.000000 0.696219 0.000000 
0.969478 0.670855 0.000000 
0.938956 0.645490 0.000000 
0.937181 0.547395 0.000000 
0.935406 0.449299 0.000000 
0.967703 0.537498 0.000000 
1.000000 0.696219 0.000000 
1.000000 0.744380 0.000000 
1.000000 0.792541 0.000000 
0.970563 0.764327 0.000000 
0.941126 0.736113 0.000000 
0.940041 0.690802 0.000000 
0.938956 0.645490 0.000000 
0.969478 0.670855 0.000000 
1.000000 0.792541 0.000000 
1.000000 0.800485 0.000000 
1.000000 0.808429 0.000000 
0.953354 0.785374 0.000000 
0.906709 0.762320 0.000000 
0.923917 0.749216 0.000000 
0.941126 0.736113 0.000000 
0.970563 0.764327 0.000000 
1.000000 0.808429 0.000000 
1.000000 0.827440 0.000000 
1.000000 0.846451 0.000000 
0.939477 0.851819 0.000000 
0.878954 0.857187 0.000000 
0.892832 0.809754 0.000000 
0.906709 0.762320 0.000000 
0.953354 0.785374 0.000000 
1.000000 0.846451 0.000000 
1.000000 0.872240 0.000000 
1.000000 0.898030 0.000000 
0.867185 0.927217 0.000000 
0.734371 0.956404 0.000000 
0.806663 0.906796 0.000000 
0.878954 0.857187 0.000000 
0.939477 0.851819 0.000000 
1.000000 0.898030 0.000000 
1.000000 0.949015 0.000000 
1.000000 1.000000 0.000000 
0.904705 1.000000 0.000000 
0.809411 1.000000 0.000000 
0.771891 0.978202 0.000000 
0.734371 0.956404 0.000000 
0.867185 0.927217 0.000000 
0.950524 0.000000 0.000000 
0.942203 0.075448 0.000000 
0.933882 0.150896 0.000000 
0.878210 0.141512 0.000000 
0.822538 0.132127 0.000000 
0.799459 0.066063 0.000000 
0.776379 0.000000 0.000000 
0.863452 0.000000 0.000000 
0.933882 0.150896 0.000000 
0.934644 0.300098 0.000000 
0.935406 0.449299 0.000000 
0.912961 0.388005 0.000000 
0.890516 0.326711 0.000000 
0.856527 0.229419 0.000000 
0.822538 0.132127 0.000000 
0.878210 0.141512 0.000000 
0.935406 0.449299 0.000000 
0.937181 0.547395 0.000000 
0.938956 0.645490 0.000000 
0.912161 0.533697 0.000000 
0.885366 0.421905 0.000000 
0.887941 0.374308 0.000000 
0.890516 0.326711 0.000000 
0.912961 0.388005 0.000000 
0.938956 0.645490 0.000000 
0.940041 0.690802 0.000000 
0.941126 0.736113 0.000000 
0.906540 0.702964 0.000000 
0.871955 0.669816 0.000000 
0.878661 0.545860 0.000000 
0.885366 0.421905 0.000000 
0.912161 0.533697 0.000000 
0.941126 0.736113 0.000000 
0.923917 0.749216 0.000000 
0.906709 0.762320 0.000000 
0.826585 0.781956 0.000000 
0.746460 0.801591 0.000000 
0.809208 0.735704 0.000000 
0.871955 0.669816 0.000000 
0.906540 0.702964 0.000000 
0.906709 0.762320 0.000000 
0.892832 0.809754 0.000000 
0.878954 0.857187 0.000000 
0.777680 0.866170 0.000000 
0.676406 0.875152 0.000000 
0.711433 0.838372 0.000000 
0.746460 0.801591 0.000000 
0.826585 0.781956 0.000000 
0.878954 0.857187 0.000000 
0.806663 0.906796 0.000000 
0.734371 0.956404 0.000000 
0.700061 0.964942 0.000000 
0.665751 0.973479 0.000000 
0.671078 0.924316 0.000000 
0.676406 0.875152 0.000000 
0.777680 0.866170 0.000000 
0.734371 0.956404 0.000000 
0.771891 0.978202 0.000000 
0.809411 1.000000 0.000000 
0.736144 1.000000 0.000000 
0.662877 1.000000 0.000000 
0.664314 0.986739 0.000000 
0.665751 0.973479 0.000000 
0.700061 0.964942 0.000000 
0.776379 0.000000 0.000000 
0.799459 0.066063 0.000000 
0.822538 0.132127 0.000000 
0.771515 0.127270 0.000000 
0.720492 0.122413 0.000000 
0.725706 0.061206 0.000000 
0.730920 0.000000 0.000000 
0.753650 0.000000 0.000000 
0.822538 0.132127 0.000000 
0.856527 0.229419 0.000000 
0.890516 0.326711 0.000000 
0.817821 0.323481 0.000000 
0.745127 0.320251 0.000000 
0.732810 0.221332 0.000000 
0.720492 0.122413 0.000000 
0.771515 0.127270 0.000000 
0.890516 0.326711 0.000000 
0.887941 0.374308 0.000000 
0.885366 0.421905 0.000000 
0.852303 0.403485 0.000000 
0.819241 0.385065 0.000000 
0.782184 0.352658 0.000000 
0.745127 0.320251 0.000000 
0.817821 0.323481 0.000000 
0.885366 0.421905 0.000000 
0.878661 0.545860 0.000000 
0.871955 0.669816 0.000000 
0.849340 0.648140 0.000000 
0.826724 0.626464 0.000000 
0.822982 0.505764 0.000000 
0.819241 0.385065 0.000000 
0.852303 0.403485 0.000000 
0.871955 0.669816 0.000000 
0.809208 0.735704 0.000000 
0.746460 0.801591 0.000000 
0.721275 0.718855 0.000000 
0.696089 0.636119 0.000000 
0.761406 0.631292 0.000000 
0.826724 0.626464 0.000000 
0.849340 0.648140 0.000000 
0.746460 0.801591 0.000000 
0.711433 0.838372 0.000000 
0.676406 0.875152 0.000000 
0.655986 0.803413 0.000000 
0.635565 0.731674 0.000000 
0.665827 0.683897 0.000000 
0.696089 0.636119 0.000000 
0.721275 0.718855 0.000000 
0.676406 0.875152 0.000000 
0.671078 0.924316 0.000000 
0.665751 0.973479 0.000000 
0.613871 0.903801 0.000000 
0.561991 0.834122 0.000000 
0.598778 0.782898 0.000000 
0.635565 0.731674 0.000000 
0.655986 0.803413 0.000000 
0.665751 0.973479 0.000000 
0.664314 0.986739 0.000000 
0.662877 1.000000 0.000000 
0.608032 1.000000 0.000000 
0.553186 1.000000 0.000000 
0.557589 0.917061 0.000000 
0.561991 0.834122 0.000000 
0.613871 0.903801 0.000000 
0.730920 0.000000 0.000000 
0.725706 0.061206 0.000000 
0.720492 0.122413 0.000000 
0.703614 0.159185 0.000000 
0.686736 0.195956 0.000000 
0.697534 0.097978 0.000000 
0.708332 0.000000 0.000000 
0.719626 0.000000 0.000000 
0.720492 0.122413 0.000000 
0.732810 0.221332 0.000000 
0.745127 0.320251 0.000000 
0.709258 0.318657 0.000000 
0.673389 0.317063 0.000000 
0.680063 0.256510 0.000000 
0.686736 0.195956 0.000000 
0.703614 0.159185 0.000000 
0.745127 0.320251 0.000000 
0.782184 0.352658 0.000000 
0.819241 0.385065 0.000000 
0.740636 0.402588 0.000000 
0.662032 0.420111 0.000000 
0.667710 0.368587 0.000000 
0.673389 0.317063 0.000000 
0.709258 0.318657 0.000000 
0.819241 0.385065 0.000000 
0.822982 0.505764 0.000000 
0.826724 0.626464 0.000000 
0.741961 0.545222 0.000000 
0.657197 0.463981 0.000000 
0.659614 0.442046 0.000000 
0.662032 0.420111 0.000000 
0.740636 0.402588 0.000000 
0.826724 0.626464 0.000000 
0.761406 0.631292 0.000000 
0.696089 0.636119 0.000000 
0.664905 0.580151 0.000000 
0.633722 0.524183 0.000000 
0.645460 0.494082 0.000000 
0.657197 0.463981 0.000000 
0.741961 0.545222 0.000000 
0.696089 0.636119 0.000000 
0.665827 0.683897 0.000000 
0.635565 0.731674 0.000000 
0.618106 0.670338 0.000000 
0.600647 0.609002 0.000000 
0.617185 0.566593 0.000000 
0.633722 0.524183 0.000000 
0.664905 0.580151 0.000000 
0.635565 0.731674 0.000000 
0.598778 0.782898 0.000000 
0.561991 0.834122 0.000000 
0.560021 0.776180 0.000000 
0.558051 0.718238 0.000000 
0.579349 0.663620 0.000000 
0.600647 0.609002 0.000000 
0.618106 0.670338 0.000000 
0.561991 0.834122 0.000000 
0.557589 0.917061 0.000000 
0.553186 1.000000 0.000000 
0.500682 1.000000 0.000000 
0.448179 1.000000 0.000000 
0.503115 0.859119 0.000000 
0.558051 0.718238 0.000000 
0.560021 0.776180 0.000000 
0.708332 0.000000 0.000000 
0.697534 0.097978 0.000000 
0.686736 0.195956 0.000000 
0.635244 0.141595 0.000000 
0.583753 0.087234 0.000000 
0.489919 0.043617 0.000000 
0.396085 0.000000 0.000000 
0.552208 0.000000 0.000000 
0.686736 0.195956 0.000000 
0.680063 0.256510 0.000000 
0.673389 0.317063 0.000000 
0.637020 0.285565 0.000000 
0.600652 0.254066 0.000000 
0.592202 0.170650 0.000000 
0.583753 0.087234 0.000000 
0.635244 0.141595 0.000000 
0.673389 0.317063 0.000000 
0.667710 0.368587 0.000000 
0.662032 0.420111 0.000000 
0.536002 0.449243 0.000000 
0.409972 0.478375 0.000000 
0.505312 0.366221 0.000000 
0.600652 0.254066 0.000000 
0.637020 0.285565 0.000000 
0.662032 0.420111 0.000000 
0.659614 0.442046 0.000000 
0.657197 0.463981 0.000000 
0.544131 0.493538 0.000000 
0.431065 0.523096 0.000000 
0.420519 0.500736 0.000000 
0.409972 0.478375 0.000000 
0.536002 0.449243 0.000000 
0.657197 0.463981 0.000000 
0.645460 0.494082 0.000000 
0.633722 0.524183 0.000000 
0.568614 0.553847 0.000000 
0.503506 0.583511 0.000000 
0.467286 0.553303 0.000000 
0.431065 0.523096 0.000000 
0.544131 0.493538 0.000000 
0.633722 0.524183 0.000000 
0.617185 0.566593 0.000000 
0.600647 0.609002 0.000000 
0.568078 0.634856 0.000000 
0.535508 0.660709 0.000000 
0.519507 0.622110 0.000000 
0.503506 0.583511 0.000000 
0.568614 0.553847 0.000000 
0.600647 0.609002 0.000000 
0.579349 0.663620 0.000000 
0.558051 0.718238 0.000000 
0.535672 0.733755 0.000000 
0.513293 0.749272 0.000000 
0.524401 0.704991 0.000000 
0.535508 0.660709 0.000000 
0.568078 0.634856 0.000000 
0.558051 0.718238 0.000000 
0.503115 0.859119 0.000000 
0.448179 1.000000 0.000000 
0.432978 1.000000 0.000000 
0.417777 1.000000 0.000000 
0.465535 0.874636 0.000000 
0.513293 0.749272 0.000000 
0.535672 0.733755 0.000000 
0.396085 0.000000 0.000000 
0.489919 0.043617 0.000000 
0.583753 0.087234 0.000000 
0.475158 0.079908 0.000000 
0.366564 0.072582 0.000000 
0.318123 0.036291 0.000000 
0.269682 0.000000 0.000000 
0.332884 0.000000 0.000000 
0.583753 0.087234 0.000000 
0.592202 0.170650 0.000000 
0.600652 0.254066 0.000000 
0.574531 0.231443 0.000000 
0.548411 0.208820 0.000000 
0.457487 0.140701 0.000000 
0.366564 0.072582 0.000000 
0.475158 0.079908 0.000000 
0.600652 0.254066 0.000000 
0.505312 0.366221 0.000000 
0.409972 0.478375 0.000000 
0.442022 0.391361 0.000000 
0.474073 0.304346 0.000000 
0.511242 0.256583 0.000000 
0.548411 0.208820 0.000000 
0.574531 0.231443 0.000000 
0.409972 0.478375 0.000000 
0.420519 0.500736 0.000000 
0.431065 0.523096 0.000000 
0.351212 0.543971 0.000000 
0.271358 0.564846 0.000000 
0.372715 0.434596 0.000000 
0.474073 0.304346 0.000000 
0.442022 0.391361 0.000000 
0.431065 0.523096 0.000000 
0.467286 0.553303 0.000000 
0.503506 0.583511 0.000000 
0.417970 0.629020 0.000000 
0.332434 0.674528 0.000000 
0.301896 0.619687 0.000000 
0.271358 0.564846 0.000000 
0.351212 0.543971 0.000000 
0.503506 0.583511 0.000000 
0.519507 0.622110 0.000000 
0.535508 0.660709 0.000000 
0.462426 0.718721 0.000000 
0.389345 0.776733 0.000000 
0.360889 0.725631 0.000000 
0.332434 0.674528 0.000000 
0.417970 0.629020 0.000000 
0.535508 0.660709 0.000000 
0.524401 0.704991 0.000000 
0.513293 0.749272 0.000000 
0.431644 0.813226 0.000000 
0.349994 0.877179 0.000000 
0.369669 0.826956 0.000000 
0.389345 0.776733 0.000000 
0.462426 0.718721 0.000000 
0.513293 0.749272 0.000000 
0.465535 0.874636 0.000000 
0.417777 1.000000 0.000000 
0.359827 1.000000 0.000000 
0.301877 1.000000 0.000000 
0.325936 0.938589 0.000000 
0.349994 0.877179 0.000000 
0.431644 0.813226 0.000000 
0.269682 0.000000 0.000000 
0.318123 0.036291 0.000000 
0.366564 0.072582 0.000000 
0.329608 0.101886 0.000000 
0.292653 0.131190 0.000000 
0.174227 0.065595 0.000000 
0.055801 0.000000 0.000000 
0.162742 0.000000 0.000000 
0.366564 0.072582 0.000000 
0.457487 0.140701 0.000000 
0.548411 0.208820 0.000000 
0.375319 0.255339 0.000000 
0.202228 0.301858 0.000000 
0.247441 0.216524 0.000000 
0.292653 0.131190 0.000000 
0.329608 0.101886 0.000000 
0.548411 0.208820 0.000000 
0.511242 0.256583 0.000000 
0.474073 0.304346 0.000000 
0.319424 0.372571 0.000000 
0.164775 0.440795 0.000000 
0.183501 0.371327 0.000000 
0.202228 0.301858 0.000000 
0.375319 0.255339 0.000000 
0.474073 0.304346 0.000000 
0.372715 0.434596 0.000000 
0.271358 0.564846 0.000000 
0.175496 0.589905 0.000000 
0.079635 0.614965 0.000000 
0.122205 0.527880 0.000000 
0.164775 0.440795 0.000000 
0.319424 0.372571 0.000000 
0.271358 0.564846 0.000000 
0.301896 0.619687 0.000000 
0.332434 0.674528 0.000000 
0.279891 0.697925 0.000000 
0.227348 0.721323 0.000000 
0.153491 0.668144 0.000000 
0.079635 0.614965 0.000000 
0.175496 0.589905 0.000000 
0.332434 0.674528 0.000000 
0.360889 0.725631 0.000000 
0.389345 0.776733 0.000000 
0.331836 0.772662 0.000000 
0.274326 0.768590 0.000000 
0.250837 0.744957 0.000000 
0.227348 0.721323 0.000000 
0.279891 0.697925 0.000000 
0.389345 0.776733 0.000000 
0.369669 0.826956 0.000000 
0.349994 0.877179 0.000000 
0.309245 0.861069 0.000000 
0.268496 0.844959 0.000000 
0.271411 0.806774 0.000000 
0.274326 0.768590 0.000000 
0.331836 0.772662 0.000000 
0.349994 0.877179 0.000000 
0.325936 0.938589 0.000000 
0.301877 1.000000 0.000000 
0.265267 1.000000 0.000000 
0.228657 1.000000 0.000000 
0.248577 0.922480 0.000000 
0.268496 0.844959 0.000000 
0.309245 0.861069 0.000000 
0.055801 0.000000 0.000000 
0.174227 0.065595 0.000000 
0.292653 0.131190 0.000000 
0.146327 0.202942 0.000000 
0.000000 0.274694 0.000000 
0.000000 0.137347 0.000000 
0.000000 0.000000 0.000000 
0.027901 0.000000 0.000000 
0.292653 0.131190 0.000000 
0.247441 0.216524 0.000000 
0.202228 0.301858 0.000000 
0.101114 0.329033 0.000000 
0.000000 0.356208 0.000000 
0.000000 0.315451 0.000000 
0.000000 0.274694 0.000000 
0.146327 0.202942 0.000000 
0.202228 0.301858 0.000000 
0.183501 0.371327 0.000000 
0.164775 0.440795 0.000000 
0.082388 0.446195 0.000000 
0.000000 0.451596 0.000000 
0.000000 0.403902 0.000000 
0.000000 0.356208 0.000000 
0.101114 0.329033 0.000000 
0.164775 0.440795 0.000000 
0.122205 0.527880 0.000000 
0.079635 0.614965 0.000000 
0.039817 0.625374 0.000000 
0.000000 0.635783 0.000000 
0.000000 0.543689 0.000000 
0.000000 0.451596 0.000000 
0.082388 0.446195 0.000000 
0.079635 0.614965 0.000000 
0.153491 0.668144 0.000000 
0.227348 0.721323 0.000000 
0.113674 0.719144 0.000000 
0.000000 0.716965 0.000000 
0.000000 0.676374 0.000000 
0.000000 0.635783 0.000000 
0.039817 0.625374 0.000000 
0.227348 0.721323 0.000000 
0.250837 0.744957 0.000000 
0.274326 0.768590 0.000000 
0.137163 0.758880 0.000000 
0.000000 0.749170 0.000000 
0.000000 0.733067 0.000000 
0.000000 0.716965 0.000000 
0.113674 0.719144 0.000000 
0.274326 0.768590 0.000000 
0.271411 0.806774 0.000000 
0.268496 0.844959 0.000000 
0.134248 0.864596 0.000000 
0.000000 0.884233 0.000000 
0.000000 0.816701 0.000000 
0.000000 0.749170 0.000000 
0.137163 0.758880 0.000000 
0.268496 0.844959 0.000000 
0.248577 0.922480 0.000000 
0.228657 1.000000 0.000000 
0.114329 1.000000 0.000000 
0.000000 1.000000 0.000000 
0.000000 0.942117 0.000000 
0.000000 0.884233 0.000000 
0.134248 0.864596 0.000000 
CELLS 64 576 
 8 0 1 2 3 4 5 6 7  
 8 8 9 10 11 12 13 14 15  
 8 16 17 18 19 20 21 22 23  
 8 24 25 26 27 28 29 30 31  
 8 32 33 34 35 36 37 38 39  
 8 40 41 42 43 44 45 46 47  
 8 48 49 50 51 52 53 54 55  
 8 56 57 58 59 60 61 62 63  
 8 64 65 66 67 68 69 70 71  
 8 72 73 74 75 76 77 78 79  
 8 80 81 82 83 84 85 86 87  
 8 88 89 90 91 92 93 94 95  
 8 96 97 98 99 100 101 102 103  
 8 104 105 106 107 108 109 110 111  
 8 112 113 114 115 116 117 118 119  
 8 120 121 122 123 124 125 126 127  
 8 128 129 130 131 132 133 134 135  
 8 136 137 138 139 140 141 142 143  
 8 144 145 146 147 148 149 150 151  
 8 152 153 154 155 156 157 158 159  
 8 160 161 162 163 164 165 166 167  
 8 168 169 170 171 172 173 174 175  
 8 176 177 178 179 180 181 182 183  
 8 184 185 186 187 188 189 190 191  
 8 192 193 194 195 196 197 198 199  
 8 200 201 202 203 204 205 206 207  
 8 208 209 210 211 212 213 214 215  
 8 216 217 218 219 220 221 222 223  
 8 224 225 226 227 228 229 230 231  
 8 232 233 234 235 236 237 238 239  
 8 240 241 242 243 244 245 246 247  
 8 248 249 250 251 252 253 254 255  
 8 256 257 258 259 260 261 262 263  
 8 264 265 266 267 268 269 270 271  
 8 272 273 274 275 276 277 278 279  
 8 280 281 282 283 284 285 286 287  
 8 288 289 290 291 292 293 294 295  
 8 296 297 298 299 300 301 302 303  
 8 304 305 306 307 308 309 310 311  
 8 312 313 314 315 316 317 318 319  
 8 320 321 322 323 324 325 326 327  
 8 328 329 330 331 332 333 334 335  
 8 336 337 338 339 340 341 342 343  
 8 344 345 346 347 348 349 350 351  
 8 352 353 354 355 356 357 358 359  
 8 360 361 362 363 364 365 366 367  
 8 368 369 370 371 372 373 374 375  
 8 376 377 378 379 380 381 382 383  
 8 384 385 386 387 388 389 390 391  
 8 392 393 394 395 396 397 398 399  
 8 400 401 402 403 404 405 406 407  
 8 408 409 410 411 412 413 414 415  
 8 416 417 418 419 420 421 422 423  
 8 424 425 426 427 428 429 430 431  
 8 432 433 434 435 436 437 438 439  
 8 440 441 442 443 444 445 446 447  
 8 448 449 450 451 452 453 454 455  
 8 456 457 458 459 460 461 462 463  
 8 464 465 466 467 468 469 470 471  
 8 472 473 474 475 476 477 478 479  
 8 480 481 482 483 484 485 486 487  
 8 488 489 490 491 492 493 494 495  
 8 496 497 498 499 500 501 502 503  
 8 504 505 506 507 508 509 510 511  
 
CELL_TYPES 64
7
7
7
7
7
7
7
7
7
7
7
7
7
7
7
7
7
7
7
7
7
7
7
7
7
7
7
7
7
7
7
7
7
7
7
7
7
7
7
7
7
7
7
7
7
7
7
7
7
7
7
7
7
7
7
7
7
7
7
7
7
7
7
7
CELL_DATA 64
FIELD FieldData 1
material 1 64 int
1
1
1
1
1
1
1
1
1
1
1
1
1
1
1
1
1
1
1
1
1
1
1
1
1
1
1
1
1
1
1
1
1
1
1
1
1
1
1
1
1
1
1
1
1
1
1
1
1
1
1
1
1
1
1
1
1
1
1
1
1
1
1
1
POINT_DATA 512 SCALARS flux_g1 double 
LOOKUP_TABLE   default 
2.44977864e-05
4.47532544e-04
-8.89403405e-05
2.80619673e-02
4.97601033e-02
2.24909212e-02
-1.99204944e-04
-2.88529345e-05
-1.79014844e-03
4.68732784e-03
-2.16922832e-03
5.66270969e-02
9.27008677e-02
9.12749408e-02
4.75365664e-02
3.20168159e-02
-2.08312216e-03
1.94667815e-03
-7.56803169e-04
3.97685853e-02
8.29383862e-02
9.46654529e-02
9.47821466e-02
5.14748469e-02
-2.39129925e-04
2.49444004e-04
-1.54226528e-04
3.12014673e-02
6.76131056e-02
7.61397097e-02
8.25525680e-02
4.02315917e-02
-3.13455817e-04
4.84191697e-04
-2.40877745e-04
4.61296136e-02
9.63700721e-02
8.42946212e-02
6.76491687e-02
3.10719695e-02
-2.33840657e-04
2.22704191e-05
2.72964772e-04
4.90768122e-02
8.17264366e-02
9.61948612e-02
9.62629624e-02
4.59696312e-02
7.00306549e-04
1.13823020e-03
2.16581220e-04
7.34119338e-02
4.95518134e-02
1.01006255e-01
8.13557920e-02
4.98358599e-02
2.20724859e-04
9.46002838e-04
-5.20017807e-04
9.98335244e-04
-3.04868971e-04
2.18710725e-02
5.00383181e-02
7.29940811e-02
-9.52157684e-04
2.49063163e-02
4.91807568e-02
8.73582927e-02
1.04521747e-01
7.31763259e-02
-7.08873402e-04
1.93041159e-03
4.94489967e-02
9.02357526e-02
9.33226431e-02
1.22823837e-01
1.34686407e-01
1.53605109e-01
1.05187327e-01
8.71408895e-02
9.33437925e-02
9.61881759e-02
8.15331040e-02
1.32829713e-01
1.55919862e-01
1.48589309e-01
1.35018293e-01
1.22614086e-01
8.11928374e-02
7.73647773e-02
6.73252191e-02
1.10456328e-01
1.55537568e-01
1.76604806e-01
1.55673154e-01
1.32298862e-01
6.71923073e-02
8.44414652e-02
9.62875854e-02
1.64369463e-01
1.89148138e-01
2.05037785e-01
1.55075943e-01
1.11214118e-01
9.59453564e-02
9.69295234e-02
8.16049538e-02
1.36487128e-01
1.49998247e-01
1.80571999e-01
1.88974063e-01
1.64471395e-01
8.22615166e-02
9.89257465e-02
5.03594244e-02
4.56030900e-02
3.62655945e-02
9.95715077e-02
1.50665391e-01
1.34931930e-01
5.09454071e-02
2.19152579e-02
-1.91303484e-04
1.52108243e-04
-1.38529724e-04
1.97218029e-02
3.64641512e-02
4.55871537e-02
1.90123204e-05
7.16325970e-02
1.05390350e-01
1.24953911e-01
1.36296787e-01
7.55720284e-02
-1.29460422e-04
-2.25889050e-04
1.05843027e-01
1.52677048e-01
1.34737980e-01
2.11445277e-01
2.60117649e-01
2.25097554e-01
1.36352115e-01
1.25289061e-01
1.34736367e-01
1.48073114e-01
1.55404534e-01
1.92947099e-01
2.20326210e-01
2.48730998e-01
2.59819400e-01
2.12379494e-01
1.55431556e-01
1.77091510e-01
1.55370415e-01
1.83955679e-01
2.10435256e-01
2.41579385e-01
2.20458123e-01
1.92342953e-01
1.55206181e-01
2.04156816e-01
1.89343695e-01
2.61174134e-01
3.08328620e-01
2.71604947e-01
2.10485489e-01
1.83256782e-01
1.88992392e-01
1.79713134e-01
1.50204192e-01
2.29699993e-01
2.85645513e-01
3.08287489e-01
3.07852123e-01
2.62142766e-01
1.50123323e-01
1.00809055e-01
3.54012821e-02
1.34142487e-01
2.14196632e-01
2.63840393e-01
2.85592218e-01
2.30244729e-01
3.51054961e-02
2.07914939e-02
-5.24674535e-04
1.51831788e-05
-1.43126766e-04
1.28764724e-01
2.14187603e-01
1.34421584e-01
4.93940491e-06
7.56203680e-02
1.36329605e-01
1.75854761e-01
2.12904094e-01
1.28349384e-01
-1.56867386e-04
-4.59133602e-04
1.36115715e-01
2.25922615e-01
2.59820872e-01
2.83032661e-01
2.99231086e-01
2.65155778e-01
2.12859272e-01
1.76245252e-01
2.59775017e-01
2.48439736e-01
2.20221133e-01
2.99057095e-01
3.42755652e-01
3.27547155e-01
2.99133987e-01
2.82911321e-01
2.19651626e-01
2.43503709e-01
2.09492313e-01
3.16251347e-01
3.52860037e-01
3.52721819e-01
3.42572935e-01
3.00877842e-01
2.09848291e-01
2.72042565e-01
3.07801819e-01
3.45807999e-01
3.64170706e-01
3.60620966e-01
3.52806415e-01
3.15187623e-01
3.07688719e-01
3.07606556e-01
2.85635527e-01
3.33024549e-01
3.58972534e-01
3.67750668e-01
3.63912464e-01
3.46072571e-01
2.85585761e-01
2.63343663e-01
2.13971056e-01
2.74081732e-01
3.13787781e-01
3.47300748e-01
3.58967794e-01
3.33158386e-01
2.14398773e-01
1.28502343e-01
-2.52496808e-04
9.25086807e-04
-7.29890657e-04
2.23357371e-01
3.14404283e-01
2.73634973e-01
-6.35400059e-04
1.30491752e-01
2.12651731e-01
1.86079480e-01
1.23197642e-01
6.91819175e-02
-7.17525733e-04
1.72611107e-03
2.12902598e-01
2.65492993e-01
2.99220863e-01
3.00286170e-01
2.85824893e-01
2.25959133e-01
1.21539756e-01
1.86782394e-01
2.98316425e-01
3.27596254e-01
3.43225417e-01
4.11314222e-01
3.80108872e-01
3.95742511e-01
2.85280004e-01
2.99773068e-01
3.43009359e-01
3.49940467e-01
3.52412634e-01
4.10440776e-01
3.84432241e-01
3.83865385e-01
3.79395554e-01
4.11740102e-01
3.52369251e-01
3.61013564e-01
3.63875288e-01
3.88708031e-01
3.81831384e-01
3.90070875e-01
3.84275353e-01
4.10825653e-01
3.63826662e-01
3.67667630e-01
3.58870163e-01
3.60037370e-01
3.50374315e-01
3.71375540e-01
3.81809301e-01
3.88814676e-01
3.58909564e-01
3.47251864e-01
3.13709710e-01
3.06769618e-01
2.94890990e-01
3.29402444e-01
3.50305430e-01
3.59949368e-01
3.14559093e-01
2.22197945e-01
-3.01431758e-04
-7.72356585e-04
-1.95289140e-04
1.95222203e-01
2.95617698e-01
3.06785182e-01
-6.92209789e-05
6.75585756e-02
1.23287708e-01
1.18738740e-01
9.91634304e-02
4.54489848e-02
2.28266794e-04
-2.11195858e-03
1.21459418e-01
2.27576768e-01
2.85408623e-01
2.74870174e-01
2.58330160e-01
1.99259023e-01
9.71847058e-02
1.21462871e-01
2.85197943e-01
3.96439259e-01
3.79668452e-01
3.82592669e-01
3.32185896e-01
3.03942178e-01
2.56648842e-01
2.74700365e-01
3.79360862e-01
3.83031815e-01
3.84504208e-01
3.65234536e-01
3.05202233e-01
4.01578278e-01
3.33117487e-01
3.82253183e-01
3.84327657e-01
3.90355443e-01
3.82043443e-01
3.69499345e-01
3.05969087e-01
3.18327430e-01
3.05584105e-01
3.65156188e-01
3.82136483e-01
3.71733142e-01
3.50967786e-01
3.26364189e-01
2.58883391e-01
2.94000911e-01
3.06115702e-01
3.68987789e-01
3.50581730e-01
3.30272865e-01
2.95542060e-01
2.43893307e-01
1.53587424e-01
2.12426551e-01
2.58717799e-01
3.26169952e-01
2.97153865e-01
1.92939254e-01
8.45754621e-04
-2.67720771e-03
1.87913300e-04
8.07052839e-02
1.53438706e-01
2.40965470e-01
-1.11902930e-03
4.75072250e-02
9.86028715e-02
1.33258640e-01
1.49053789e-01
3.88136455e-02
-3.65603028e-03
2.77798636e-03
9.70737589e-02
1.97600358e-01
2.56911662e-01
3.23287128e-01
2.15300128e-01
2.13833908e-01
1.47596541e-01
1.29582467e-01
2.54795135e-01
3.05951112e-01
3.31068023e-01
3.66915011e-01
2.12283543e-01
2.28533005e-01
2.13938633e-01
3.26884369e-01
3.33497512e-01
3.99847461e-01
3.06220206e-01
2.29309246e-01
1.09145691e-01
1.73765956e-01
2.14624200e-01
3.63961551e-01
3.06047192e-01
3.17820052e-01
3.06566572e-01
2.69390877e-01
2.22190596e-01
1.95779548e-01
1.08905072e-01
2.31675403e-01
3.06308700e-01
2.94645371e-01
2.58936354e-01
2.48978140e-01
2.22386391e-01
2.26431407e-01
2.21755768e-01
2.69923165e-01
2.59123686e-01
2.11982107e-01
1.54320275e-01
1.63116383e-01
1.61838723e-01
1.95332821e-01
2.22500134e-01
2.48559155e-01
1.54233037e-01
8.18703109e-02
-2.10251947e-04
2.14085371e-04
-2.00147322e-04
8.70448004e-02
1.61912364e-01
1.63644010e-01
-6.19274033e-03
4.20538886e-02
1.47749416e-01
1.82417730e-01
-9.96733507e-05
1.75774969e-03
-3.04173181e-03
1.66110521e-02
1.47820969e-01
2.14230658e-01
2.14254770e-01
1.44169084e-01
2.13001680e-04
-1.11844647e-03
6.67794135e-04
1.79017295e-01
2.14195621e-01
2.25203787e-01
2.13177250e-01
1.27313242e-01
3.26422992e-04
-3.94158943e-04
2.35219299e-04
1.44597042e-01
2.13380680e-01
1.75102048e-01
1.07957897e-01
5.89475812e-02
-2.90869131e-04
5.54926052e-04
-7.01418869e-05
1.28331202e-01
1.08508587e-01
1.97166906e-01
2.21823549e-01
1.45142825e-01
-2.38138609e-04
6.85250698e-04
-3.22465901e-05
5.88560572e-02
2.21818595e-01
2.26765389e-01
2.22324100e-01
1.61095034e-01
6.41232656e-05
2.22213448e-04
9.73352590e-07
1.44412856e-01
2.21916010e-01
1.96307739e-01
1.62511865e-01
9.19766706e-02
-1.53028602e-03
2.54411141e-03
-1.08663933e-03
1.61832215e-01
1.64036555e-01
8.35380733e-02
1.17628678e-03
-4.56278383e-04
1.15362811e-03
-2.44700814e-03
5.06298333e-04
8.58764114e-02
 
