# vtk DataFile Version 3.0 
Date: 5/7/2016   Time: 15:44
ASCII 
DATASET UNSTRUCTURED_GRID 
 
POINTS 1024 float 
1.000000 0.000000 0.000000 
1.000000 0.034891 0.000000 
0.935123 0.072841 0.000000 
0.966636 0.000000 0.000000 
1.000000 0.034891 0.000000 
1.000000 0.073089 0.000000 
0.970464 0.087008 0.000000 
0.935123 0.072841 0.000000 
1.000000 0.073089 0.000000 
1.000000 0.110237 0.000000 
0.980208 0.159521 0.000000 
0.970464 0.087008 0.000000 
1.000000 0.110237 0.000000 
1.000000 0.187837 0.000000 
0.963141 0.187405 0.000000 
0.980208 0.159521 0.000000 
1.000000 0.187837 0.000000 
1.000000 0.223392 0.000000 
0.961171 0.242025 0.000000 
0.963141 0.187405 0.000000 
1.000000 0.223392 0.000000 
1.000000 0.253376 0.000000 
0.982158 0.258886 0.000000 
0.961171 0.242025 0.000000 
1.000000 0.253376 0.000000 
1.000000 0.317503 0.000000 
0.979784 0.312569 0.000000 
0.982158 0.258886 0.000000 
1.000000 0.317503 0.000000 
1.000000 0.367540 0.000000 
0.950944 0.426572 0.000000 
0.979784 0.312569 0.000000 
1.000000 0.367540 0.000000 
1.000000 0.475572 0.000000 
0.956459 0.490855 0.000000 
0.950944 0.426572 0.000000 
1.000000 0.475572 0.000000 
1.000000 0.551681 0.000000 
0.969087 0.559830 0.000000 
0.956459 0.490855 0.000000 
1.000000 0.551681 0.000000 
1.000000 0.619810 0.000000 
0.962981 0.623541 0.000000 
0.969087 0.559830 0.000000 
1.000000 0.619810 0.000000 
1.000000 0.664532 0.000000 
0.965250 0.683538 0.000000 
0.962981 0.623541 0.000000 
1.000000 0.664532 0.000000 
1.000000 0.747365 0.000000 
0.979842 0.734909 0.000000 
0.965250 0.683538 0.000000 
1.000000 0.747365 0.000000 
1.000000 0.801442 0.000000 
0.966392 0.839263 0.000000 
0.979842 0.734909 0.000000 
1.000000 0.801442 0.000000 
1.000000 0.945122 0.000000 
0.964259 0.912233 0.000000 
0.966392 0.839263 0.000000 
1.000000 0.945122 0.000000 
1.000000 1.000000 0.000000 
0.903663 1.000000 0.000000 
0.964259 0.912233 0.000000 
0.966636 0.000000 0.000000 
0.935123 0.072841 0.000000 
0.889843 0.052147 0.000000 
0.887539 0.000000 0.000000 
0.935123 0.072841 0.000000 
0.970464 0.087008 0.000000 
0.892996 0.123517 0.000000 
0.889843 0.052147 0.000000 
0.970464 0.087008 0.000000 
0.980208 0.159521 0.000000 
0.915595 0.157788 0.000000 
0.892996 0.123517 0.000000 
0.980208 0.159521 0.000000 
0.963141 0.187405 0.000000 
0.934905 0.187073 0.000000 
0.915595 0.157788 0.000000 
0.963141 0.187405 0.000000 
0.961171 0.242025 0.000000 
0.931397 0.237532 0.000000 
0.934905 0.187073 0.000000 
0.961171 0.242025 0.000000 
0.982158 0.258886 0.000000 
0.928766 0.275375 0.000000 
0.931397 0.237532 0.000000 
0.982158 0.258886 0.000000 
0.979784 0.312569 0.000000 
0.928200 0.357029 0.000000 
0.928766 0.275375 0.000000 
0.979784 0.312569 0.000000 
0.950944 0.426572 0.000000 
0.927521 0.454757 0.000000 
0.928200 0.357029 0.000000 
0.950944 0.426572 0.000000 
0.956459 0.490855 0.000000 
0.921802 0.529194 0.000000 
0.927521 0.454757 0.000000 
0.956459 0.490855 0.000000 
0.969087 0.559830 0.000000 
0.918423 0.573186 0.000000 
0.921802 0.529194 0.000000 
0.969087 0.559830 0.000000 
0.962981 0.623541 0.000000 
0.934181 0.652902 0.000000 
0.918423 0.573186 0.000000 
0.962981 0.623541 0.000000 
0.965250 0.683538 0.000000 
0.942678 0.695884 0.000000 
0.934181 0.652902 0.000000 
0.965250 0.683538 0.000000 
0.979842 0.734909 0.000000 
0.930197 0.758235 0.000000 
0.942678 0.695884 0.000000 
0.979842 0.734909 0.000000 
0.966392 0.839263 0.000000 
0.898737 0.915400 0.000000 
0.930197 0.758235 0.000000 
0.966392 0.839263 0.000000 
0.964259 0.912233 0.000000 
0.868249 0.942269 0.000000 
0.898737 0.915400 0.000000 
0.964259 0.912233 0.000000 
0.903663 1.000000 0.000000 
0.802740 1.000000 0.000000 
0.868249 0.942269 0.000000 
0.887539 0.000000 0.000000 
0.889843 0.052147 0.000000 
0.880402 0.082671 0.000000 
0.859464 0.000000 0.000000 
0.889843 0.052147 0.000000 
0.892996 0.123517 0.000000 
0.869441 0.125972 0.000000 
0.880402 0.082671 0.000000 
0.892996 0.123517 0.000000 
0.915595 0.157788 0.000000 
0.897245 0.160873 0.000000 
0.869441 0.125972 0.000000 
0.915595 0.157788 0.000000 
0.934905 0.187073 0.000000 
0.910518 0.186787 0.000000 
0.897245 0.160873 0.000000 
0.934905 0.187073 0.000000 
0.931397 0.237532 0.000000 
0.886877 0.238153 0.000000 
0.910518 0.186787 0.000000 
0.931397 0.237532 0.000000 
0.928766 0.275375 0.000000 
0.885879 0.347991 0.000000 
0.886877 0.238153 0.000000 
0.928766 0.275375 0.000000 
0.928200 0.357029 0.000000 
0.895451 0.435462 0.000000 
0.885879 0.347991 0.000000 
0.928200 0.357029 0.000000 
0.927521 0.454757 0.000000 
0.878109 0.514218 0.000000 
0.895451 0.435462 0.000000 
0.927521 0.454757 0.000000 
0.921802 0.529194 0.000000 
0.840996 0.598414 0.000000 
0.878109 0.514218 0.000000 
0.921802 0.529194 0.000000 
0.918423 0.573186 0.000000 
0.826658 0.662358 0.000000 
0.840996 0.598414 0.000000 
0.918423 0.573186 0.000000 
0.934181 0.652902 0.000000 
0.869897 0.697087 0.000000 
0.826658 0.662358 0.000000 
0.934181 0.652902 0.000000 
0.942678 0.695884 0.000000 
0.882964 0.728544 0.000000 
0.869897 0.697087 0.000000 
0.942678 0.695884 0.000000 
0.930197 0.758235 0.000000 
0.830088 0.858675 0.000000 
0.882964 0.728544 0.000000 
0.930197 0.758235 0.000000 
0.898737 0.915400 0.000000 
0.774230 0.916236 0.000000 
0.830088 0.858675 0.000000 
0.898737 0.915400 0.000000 
0.868249 0.942269 0.000000 
0.790273 0.969148 0.000000 
0.774230 0.916236 0.000000 
0.868249 0.942269 0.000000 
0.802740 1.000000 0.000000 
0.710223 1.000000 0.000000 
0.790273 0.969148 0.000000 
0.859464 0.000000 0.000000 
0.880402 0.082671 0.000000 
0.849832 0.033229 0.000000 
0.848398 0.000000 0.000000 
0.880402 0.082671 0.000000 
0.869441 0.125972 0.000000 
0.853906 0.127591 0.000000 
0.849832 0.033229 0.000000 
0.869441 0.125972 0.000000 
0.897245 0.160873 0.000000 
0.855801 0.171485 0.000000 
0.853906 0.127591 0.000000 
0.897245 0.160873 0.000000 
0.910518 0.186787 0.000000 
0.856434 0.186152 0.000000 
0.855801 0.171485 0.000000 
0.910518 0.186787 0.000000 
0.886877 0.238153 0.000000 
0.838180 0.365423 0.000000 
0.856434 0.186152 0.000000 
0.886877 0.238153 0.000000 
0.885879 0.347991 0.000000 
0.830388 0.441948 0.000000 
0.838180 0.365423 0.000000 
0.885879 0.347991 0.000000 
0.895451 0.435462 0.000000 
0.825727 0.487723 0.000000 
0.830388 0.441948 0.000000 
0.895451 0.435462 0.000000 
0.878109 0.514218 0.000000 
0.815338 0.589754 0.000000 
0.825727 0.487723 0.000000 
0.878109 0.514218 0.000000 
0.840996 0.598414 0.000000 
0.803166 0.653488 0.000000 
0.815338 0.589754 0.000000 
0.840996 0.598414 0.000000 
0.826658 0.662358 0.000000 
0.795732 0.692409 0.000000 
0.803166 0.653488 0.000000 
0.826658 0.662358 0.000000 
0.869897 0.697087 0.000000 
0.784997 0.748616 0.000000 
0.795732 0.692409 0.000000 
0.869897 0.697087 0.000000 
0.882964 0.728544 0.000000 
0.777851 0.786034 0.000000 
0.784997 0.748616 0.000000 
0.882964 0.728544 0.000000 
0.830088 0.858675 0.000000 
0.740344 0.865477 0.000000 
0.777851 0.786034 0.000000 
0.830088 0.858675 0.000000 
0.774230 0.916236 0.000000 
0.716195 0.916625 0.000000 
0.740344 0.865477 0.000000 
0.774230 0.916236 0.000000 
0.790273 0.969148 0.000000 
0.703521 0.943470 0.000000 
0.716195 0.916625 0.000000 
0.790273 0.969148 0.000000 
0.710223 1.000000 0.000000 
0.676832 1.000000 0.000000 
0.703521 0.943470 0.000000 
0.848398 0.000000 0.000000 
0.849832 0.033229 0.000000 
0.754940 0.028193 0.000000 
0.785346 0.000000 0.000000 
0.849832 0.033229 0.000000 
0.853906 0.127591 0.000000 
0.826188 0.117942 0.000000 
0.754940 0.028193 0.000000 
0.853906 0.127591 0.000000 
0.855801 0.171485 0.000000 
0.813329 0.156086 0.000000 
0.826188 0.117942 0.000000 
0.855801 0.171485 0.000000 
0.856434 0.186152 0.000000 
0.824155 0.189249 0.000000 
0.813329 0.156086 0.000000 
0.856434 0.186152 0.000000 
0.838180 0.365423 0.000000 
0.798012 0.330342 0.000000 
0.824155 0.189249 0.000000 
0.838180 0.365423 0.000000 
0.830388 0.441948 0.000000 
0.788415 0.400759 0.000000 
0.798012 0.330342 0.000000 
0.830388 0.441948 0.000000 
0.825727 0.487723 0.000000 
0.794871 0.541733 0.000000 
0.788415 0.400759 0.000000 
0.825727 0.487723 0.000000 
0.815338 0.589754 0.000000 
0.797046 0.611765 0.000000 
0.794871 0.541733 0.000000 
0.815338 0.589754 0.000000 
0.803166 0.653488 0.000000 
0.787885 0.663643 0.000000 
0.797046 0.611765 0.000000 
0.803166 0.653488 0.000000 
0.795732 0.692409 0.000000 
0.761813 0.711412 0.000000 
0.787885 0.663643 0.000000 
0.795732 0.692409 0.000000 
0.784997 0.748616 0.000000 
0.764138 0.763794 0.000000 
0.761813 0.711412 0.000000 
0.784997 0.748616 0.000000 
0.777851 0.786034 0.000000 
0.757863 0.786298 0.000000 
0.764138 0.763794 0.000000 
0.777851 0.786034 0.000000 
0.740344 0.865477 0.000000 
0.709916 0.835984 0.000000 
0.757863 0.786298 0.000000 
0.740344 0.865477 0.000000 
0.716195 0.916625 0.000000 
0.682769 0.899887 0.000000 
0.709916 0.835984 0.000000 
0.716195 0.916625 0.000000 
0.703521 0.943470 0.000000 
0.610683 0.940637 0.000000 
0.682769 0.899887 0.000000 
0.703521 0.943470 0.000000 
0.676832 1.000000 0.000000 
0.579280 1.000000 0.000000 
0.610683 0.940637 0.000000 
0.785346 0.000000 0.000000 
0.754940 0.028193 0.000000 
0.754788 0.074517 0.000000 
0.679146 0.000000 0.000000 
0.754940 0.028193 0.000000 
0.826188 0.117942 0.000000 
0.783942 0.103237 0.000000 
0.754788 0.074517 0.000000 
0.826188 0.117942 0.000000 
0.813329 0.156086 0.000000 
0.786584 0.147168 0.000000 
0.783942 0.103237 0.000000 
0.813329 0.156086 0.000000 
0.824155 0.189249 0.000000 
0.789316 0.192592 0.000000 
0.786584 0.147168 0.000000 
0.824155 0.189249 0.000000 
0.798012 0.330342 0.000000 
0.767490 0.274429 0.000000 
0.789316 0.192592 0.000000 
0.798012 0.330342 0.000000 
0.788415 0.400759 0.000000 
0.745127 0.358280 0.000000 
0.767490 0.274429 0.000000 
0.788415 0.400759 0.000000 
0.794871 0.541733 0.000000 
0.762739 0.540072 0.000000 
0.745127 0.358280 0.000000 
0.794871 0.541733 0.000000 
0.797046 0.611765 0.000000 
0.772542 0.641253 0.000000 
0.762739 0.540072 0.000000 
0.797046 0.611765 0.000000 
[...]
CELL_DATA 256
FIELD FieldData 1
material 1 256 int
1
1
1
1
1
1
1
1
1
1
1
1
1
1
1
1
1
1
1
1
1
1
1
1
1
1
1
1
1
1
1
1
1
1
1
1
1
1
1
1
1
1
1
1
1
1
1
1
1
1
1
1
1
1
1
1
1
1
1
1
1
1
1
1
1
1
1
1
1
1
1
1
1
1
1
1
1
1
1
1
1
1
1
1
1
1
1
1
1
1
1
1
1
1
1
1
1
1
1
1
1
1
1
1
1
1
1
1
1
1
1
1
1
1
1
1
1
1
1
1
1
1
1
1
1
1
1
1
1
1
1
1
1
1
1
1
1
1
1
1
1
1
1
1
1
1
1
1
1
1
1
1
1
1
1
1
1
1
1
1
1
1
1
1
1
1
1
1
1
1
1
1
1
1
1
1
1
1
1
1
1
1
1
1
1
1
1
1
1
1
1
1
1
1
1
1
1
1
1
1
1
1
1
1
1
1
1
1
1
1
1
1
1
1
1
1
1
1
1
1
1
1
1
1
1
1
1
1
1
1
1
1
1
1
1
1
1
1
1
1
1
1
1
1
1
1
1
1
1
1
1
1
1
1
1
1
POINT_DATA 1024 SCALARS flux_g1 double 
LOOKUP_TABLE   default 
1.25663706e+01
1.28952105e+01
1.28452429e+01
1.23567384e+01
1.28952105e+01
1.32552163e+01
1.32008225e+01
1.28452429e+01
1.32552163e+01
1.36053299e+01
1.39454638e+01
1.32008225e+01
1.36053299e+01
1.43366926e+01
1.41010292e+01
1.39454638e+01
1.43366926e+01
1.46717906e+01
1.46034327e+01
1.41010292e+01
1.46717906e+01
1.49543832e+01
1.48942091e+01
1.46034327e+01
1.49543832e+01
1.55587659e+01
1.53852432e+01
1.48942091e+01
1.55587659e+01
1.60303535e+01
1.62784891e+01
1.53852432e+01
1.60303535e+01
1.70485311e+01
1.69189938e+01
1.62784891e+01
1.70485311e+01
1.77658415e+01
1.76484120e+01
1.69189938e+01
1.77658415e+01
1.84079422e+01
1.82105089e+01
1.76484120e+01
1.84079422e+01
1.88294372e+01
1.87902238e+01
1.82105089e+01
1.88294372e+01
1.96101198e+01
1.93660683e+01
1.87902238e+01
1.96101198e+01
2.01197835e+01
2.02650727e+01
1.93660683e+01
2.01197835e+01
2.14739356e+01
2.09393968e+01
2.02650727e+01
2.14739356e+01
2.19911486e+01
2.13858454e+01
2.09393968e+01
1.23567384e+01
1.28452429e+01
1.23657067e+01
1.18597573e+01
1.28452429e+01
1.32008225e+01
1.30581650e+01
1.23657067e+01
1.32008225e+01
1.39454638e+01
1.35231552e+01
1.30581650e+01
1.39454638e+01
1.41010292e+01
1.39204882e+01
1.35231552e+01
1.41010292e+01
1.46034327e+01
1.43740116e+01
1.39204882e+01
1.46034327e+01
1.48942091e+01
1.47141424e+01
1.43740116e+01
1.48942091e+01
1.53852432e+01
1.54801570e+01
1.47141424e+01
1.53852432e+01
1.62784891e+01
1.63969554e+01
1.54801570e+01
1.62784891e+01
1.69189938e+01
1.70625740e+01
1.63969554e+01
1.69189938e+01
1.76484120e+01
1.74559580e+01
1.70625740e+01
1.76484120e+01
1.82105089e+01
1.83062740e+01
1.74559580e+01
1.82105089e+01
1.87902238e+01
1.87647581e+01
1.83062740e+01
1.87902238e+01
1.93660683e+01
1.92739819e+01
1.87647581e+01
1.93660683e+01
2.02650727e+01
2.05575582e+01
1.92739819e+01
2.02650727e+01
2.09393968e+01
2.06192308e+01
2.05575582e+01
2.09393968e+01
2.13858454e+01
2.07517274e+01
2.06192308e+01
1.18597573e+01
1.23657067e+01
1.25940663e+01
1.16833569e+01
1.23657067e+01
1.30581650e+01
1.29333024e+01
1.25940663e+01
1.30581650e+01
1.35231552e+01
1.34369342e+01
1.29333024e+01
1.35231552e+01
1.39204882e+01
1.37645646e+01
1.34369342e+01
1.39204882e+01
1.43740116e+01
1.41001370e+01
1.37645646e+01
1.43740116e+01
1.47141424e+01
1.51290651e+01
1.41001370e+01
1.47141424e+01
1.54801570e+01
1.60136025e+01
1.51290651e+01
1.54801570e+01
1.63969554e+01
1.66468973e+01
1.60136025e+01
1.63969554e+01
1.70625740e+01
1.72072381e+01
1.66468973e+01
1.70625740e+01
1.74559580e+01
1.77198078e+01
1.72072381e+01
1.74559580e+01
1.83062740e+01
1.83187996e+01
1.77198078e+01
1.83062740e+01
1.87647581e+01
1.86973772e+01
1.83187996e+01
1.87647581e+01
1.92739819e+01
1.95916032e+01
1.86973772e+01
1.92739819e+01
2.05575582e+01
1.97831367e+01
1.95916032e+01
2.05575582e+01
2.06192308e+01
2.03826217e+01
1.97831367e+01
2.06192308e+01
2.07517274e+01
2.01704260e+01
2.03826217e+01
1.16833569e+01
1.25940663e+01
1.19360104e+01
1.16138272e+01
1.25940663e+01
1.29333024e+01
1.28509518e+01
1.19360104e+01
1.29333024e+01
1.34369342e+01
1.32765496e+01
1.28509518e+01
1.34369342e+01
1.37645646e+01
1.34187601e+01
1.32765496e+01
1.37645646e+01
1.41001370e+01
1.49936562e+01
1.34187601e+01
1.41001370e+01
1.51290651e+01
1.56659288e+01
1.49936562e+01
1.51290651e+01
1.60136025e+01
1.60680620e+01
1.56659288e+01
1.60136025e+01
1.66468973e+01
1.69644056e+01
1.60680620e+01
1.66468973e+01
1.72072381e+01
1.74886054e+01
1.69644056e+01
1.72072381e+01
1.77198078e+01
1.78087180e+01
1.74886054e+01
1.77198078e+01
1.83187996e+01
1.82710065e+01
1.78087180e+01
1.83187996e+01
1.86973772e+01
1.85787632e+01
1.82710065e+01
1.86973772e+01
1.95916032e+01
1.90918324e+01
1.85787632e+01
1.95916032e+01
1.97831367e+01
1.94221583e+01
1.90918324e+01
1.97831367e+01
2.03826217e+01
1.95955334e+01
1.94221583e+01
2.03826217e+01
2.01704260e+01
1.99606241e+01
1.95955334e+01
1.16138272e+01
1.19360104e+01
1.12923250e+01
1.12176598e+01
1.19360104e+01
1.28509518e+01
1.25858548e+01
1.12923250e+01
1.28509518e+01
1.32765496e+01
1.28645580e+01
1.25858548e+01
1.32765496e+01
1.34187601e+01
1.32451337e+01
1.28645580e+01
1.34187601e+01
1.49936562e+01
1.44106426e+01
1.32451337e+01
1.49936562e+01
1.56659288e+01
1.50140074e+01
1.44106426e+01
1.56659288e+01
1.60680620e+01
1.63832203e+01
1.50140074e+01
1.60680620e+01
1.69644056e+01
1.70569223e+01
1.63832203e+01
1.69644056e+01
1.74886054e+01
1.74883007e+01
1.70569223e+01
1.74886054e+01
1.78087180e+01
1.77746977e+01
1.74883007e+01
1.78087180e+01
1.82710065e+01
1.82829948e+01
1.77746977e+01
1.82710065e+01
1.85787632e+01
1.84556630e+01
1.82829948e+01
1.85787632e+01
1.90918324e+01
1.86226827e+01
1.84556630e+01
1.90918324e+01
1.94221583e+01
1.90543846e+01
1.86226827e+01
1.94221583e+01
1.95955334e+01
1.89855146e+01
1.90543846e+01
1.95955334e+01
1.99606241e+01
1.93476869e+01
1.89855146e+01
1.12176598e+01
1.12923250e+01
1.17279625e+01
1.05503855e+01
1.12923250e+01
1.25858548e+01
1.21818240e+01
1.17279625e+01
1.25858548e+01
1.28645580e+01
1.26124641e+01
1.21818240e+01
1.28645580e+01
1.32451337e+01
1.30577408e+01
1.26124641e+01
1.32451337e+01
1.44106426e+01
1.36918996e+01
1.30577408e+01
1.44106426e+01
1.50140074e+01
1.43416658e+01
1.36918996e+01
1.50140074e+01
1.63832203e+01
1.61656745e+01
1.43416658e+01
1.63832203e+01
1.70569223e+01
1.71808770e+01
1.61656745e+01
1.70569223e+01
1.74883007e+01
1.73572429e+01
1.71808770e+01
1.74883007e+01
1.77746977e+01
1.77387390e+01
1.73572429e+01
1.77746977e+01
1.82829948e+01
1.78941410e+01
1.77387390e+01
1.82829948e+01
1.84556630e+01
1.83028811e+01
1.78941410e+01
1.84556630e+01
1.86226827e+01
1.82546482e+01
1.83028811e+01
1.86226827e+01
1.90543846e+01
1.81967424e+01
1.82546482e+01
1.90543846e+01
1.89855146e+01
1.83065096e+01
1.81967424e+01
1.89855146e+01
1.93476869e+01
1.85097173e+01
1.83065096e+01
1.05503855e+01
1.17279625e+01
1.03714664e+01
1.02408946e+01
1.17279625e+01
1.21818240e+01
1.10557534e+01
1.03714664e+01
1.21818240e+01
1.26124641e+01
1.23830587e+01
1.10557534e+01
1.26124641e+01
1.30577408e+01
1.25908059e+01
1.23830587e+01
1.30577408e+01
1.36918996e+01
1.34469339e+01
1.25908059e+01
1.36918996e+01
1.43416658e+01
1.45987423e+01
1.34469339e+01
1.43416658e+01
1.61656745e+01
1.65071813e+01
1.45987423e+01
1.61656745e+01
1.71808770e+01
1.72220067e+01
1.65071813e+01
1.71808770e+01
1.73572429e+01
1.74859665e+01
1.72220067e+01
1.73572429e+01
1.77387390e+01
1.76479470e+01
1.74859665e+01
1.77387390e+01
1.78941410e+01
1.78361158e+01
1.76479470e+01
1.78941410e+01
1.83028811e+01
1.77830386e+01
1.78361158e+01
1.83028811e+01
1.82546482e+01
1.79839686e+01
1.77830386e+01
1.82546482e+01
1.81967424e+01
1.80382428e+01
1.79839686e+01
1.81967424e+01
1.83065096e+01
1.79921587e+01
1.80382428e+01
1.83065096e+01
1.85097173e+01
1.81586129e+01
1.79921587e+01
1.02408946e+01
1.03714664e+01
1.01349469e+01
9.73267289e+00
1.03714664e+01
1.10557534e+01
1.05489099e+01
1.01349469e+01
1.10557534e+01
1.23830587e+01
1.12486359e+01
1.05489099e+01
1.23830587e+01
1.25908059e+01
1.20857446e+01
1.12486359e+01
1.25908059e+01
1.34469339e+01
1.29094451e+01
1.20857446e+01
1.34469339e+01
1.45987423e+01
1.48869583e+01
1.29094451e+01
1.45987423e+01
1.65071813e+01
1.65534350e+01
1.48869583e+01
1.65071813e+01
1.72220067e+01
1.73371335e+01
1.65534350e+01
1.72220067e+01
1.74859665e+01
1.73771857e+01
1.73371335e+01
1.74859665e+01
1.76479470e+01
1.73946718e+01
1.73771857e+01
1.76479470e+01
1.78361158e+01
1.74361817e+01
1.73946718e+01
1.78361158e+01
1.77830386e+01
1.74917564e+01
1.74361817e+01
1.77830386e+01
1.79839686e+01
1.75427759e+01
1.74917564e+01
1.79839686e+01
1.80382428e+01
1.76095379e+01
1.75427759e+01
1.80382428e+01
1.79921587e+01
1.76759040e+01
1.76095379e+01
1.79921587e+01
1.81586129e+01
1.77894255e+01
1.76759040e+01
9.73267289e+00
1.01349469e+01
1.01938009e+01
8.75822625e+00
1.01349469e+01
1.05489099e+01
1.09783081e+01
1.01938009e+01
1.05489099e+01
1.12486359e+01
1.20434211e+01
1.09783081e+01
1.12486359e+01
1.20857446e+01
1.24556200e+01
1.20434211e+01
1.20857446e+01
1.29094451e+01
1.33061874e+01
1.24556200e+01
1.29094451e+01
1.48869583e+01
1.50579583e+01
1.33061874e+01
1.48869583e+01
1.65534350e+01
1.58948063e+01
1.50579583e+01
1.65534350e+01
1.73371335e+01
1.67953784e+01
1.58948063e+01
1.73371335e+01
1.73771857e+01
1.70613897e+01
1.67953784e+01
1.73771857e+01
1.73946718e+01
1.71147873e+01
1.70613897e+01
1.73946718e+01
1.74361817e+01
1.71427915e+01
1.71147873e+01
1.74361817e+01
1.74917564e+01
1.70602304e+01
1.71427915e+01
1.74917564e+01
1.75427759e+01
1.72138888e+01
1.70602304e+01
1.75427759e+01
1.76095379e+01
1.72253462e+01
1.72138888e+01
1.76095379e+01
1.76759040e+01
1.74275611e+01
1.72253462e+01
1.76759040e+01
1.77894255e+01
1.74840690e+01
1.74275611e+01
8.75822625e+00
1.01938009e+01
9.93675389e+00
8.09888135e+00
1.01938009e+01
1.09783081e+01
1.15777428e+01
9.93675389e+00
1.09783081e+01
1.20434211e+01
1.21053482e+01
1.15777428e+01
1.20434211e+01
1.24556200e+01
1.28295261e+01
1.21053482e+01
1.24556200e+01
1.33061874e+01
1.46434754e+01
1.28295261e+01
1.33061874e+01
1.50579583e+01
1.54303533e+01
1.46434754e+01
1.50579583e+01
1.58948063e+01
1.56132945e+01
1.54303533e+01
1.58948063e+01
1.67953784e+01
1.60908669e+01
1.56132945e+01
1.67953784e+01
1.70613897e+01
1.62606888e+01
1.60908669e+01
1.70613897e+01
1.71147873e+01
1.67535261e+01
1.62606888e+01
1.71147873e+01
1.71427915e+01
1.67913918e+01
1.67535261e+01
1.71427915e+01
1.70602304e+01
1.68047027e+01
1.67913918e+01
1.70602304e+01
1.72138888e+01
1.69201531e+01
1.68047027e+01
1.72138888e+01
1.72253462e+01
1.70298355e+01
1.69201531e+01
1.72253462e+01
1.74275611e+01
1.70178472e+01
1.70298355e+01
1.74275611e+01
1.74840690e+01
1.70074705e+01
1.70178472e+01
8.09888135e+00
9.93675389e+00
9.86635080e+00
7.75821961e+00
9.93675389e+00
1.15777428e+01
1.13660215e+01
9.86635080e+00
1.15777428e+01
1.21053482e+01
1.17447970e+01
1.13660215e+01
1.21053482e+01
1.28295261e+01
1.33309997e+01
1.17447970e+01
1.28295261e+01
1.46434754e+01
1.37599214e+01
1.33309997e+01
1.46434754e+01
1.54303533e+01
1.50895313e+01
1.37599214e+01
1.54303533e+01
1.56132945e+01
1.53357411e+01
1.50895313e+01
1.56132945e+01
1.60908669e+01
1.55783569e+01
1.53357411e+01
1.60908669e+01
1.62606888e+01
1.60588509e+01
1.55783569e+01
1.62606888e+01
1.67535261e+01
1.60587629e+01
1.60588509e+01
1.67535261e+01
1.67913918e+01
1.63943604e+01
1.60587629e+01
1.67913918e+01
1.68047027e+01
1.65952087e+01
1.63943604e+01
1.68047027e+01
1.69201531e+01
1.64499980e+01
1.65952087e+01
1.69201531e+01
1.70298355e+01
1.68176963e+01
1.64499980e+01
1.70298355e+01
1.70178472e+01
1.65600637e+01
1.68176963e+01
1.70178472e+01
1.70074705e+01
1.66773959e+01
1.65600637e+01
7.75821961e+00
9.86635080e+00
9.34894620e+00
7.18195098e+00
9.86635080e+00
1.13660215e+01
1.08941448e+01
9.34894620e+00
1.13660215e+01
1.17447970e+01
1.26419071e+01
1.08941448e+01
1.17447970e+01
1.33309997e+01
1.35188418e+01
1.26419071e+01
1.33309997e+01
1.37599214e+01
1.41364821e+01
1.35188418e+01
1.37599214e+01
1.50895313e+01
1.44066590e+01
1.41364821e+01
1.50895313e+01
1.53357411e+01
1.48109820e+01
1.44066590e+01
1.53357411e+01
1.55783569e+01
1.53037345e+01
1.48109820e+01
1.55783569e+01
1.60588509e+01
1.55873481e+01
1.53037345e+01
1.60588509e+01
1.60587629e+01
1.57076240e+01
1.55873481e+01
1.60587629e+01
1.63943604e+01
1.60204418e+01
1.57076240e+01
1.63943604e+01
1.65952087e+01
1.62151577e+01
1.60204418e+01
1.65952087e+01
1.64499980e+01
1.62423136e+01
1.62151577e+01
1.64499980e+01
1.68176963e+01
1.62828496e+01
1.62423136e+01
1.68176963e+01
1.65600637e+01
1.63052114e+01
1.62828496e+01
1.65600637e+01
1.66773959e+01
1.63271203e+01
1.63052114e+01
7.18195098e+00
9.34894620e+00
8.56916520e+00
6.79979697e+00
9.34894620e+00
1.08941448e+01
1.01898186e+01
8.56916520e+00
1.08941448e+01
1.26419071e+01
1.12857161e+01
1.01898186e+01
1.26419071e+01
1.35188418e+01
1.08476398e+01
1.12857161e+01
1.35188418e+01
1.41364821e+01
1.26087318e+01
1.08476398e+01
1.41364821e+01
1.44066590e+01
1.27469305e+01
1.26087318e+01
1.44066590e+01
1.48109820e+01
1.32865462e+01
1.27469305e+01
1.48109820e+01
1.53037345e+01
1.46776780e+01
1.32865462e+01
1.53037345e+01
1.55873481e+01
1.48625952e+01
1.46776780e+01
1.55873481e+01
1.57076240e+01
1.48694188e+01
1.48625952e+01
1.57076240e+01
1.60204418e+01
1.49467365e+01
1.48694188e+01
1.60204418e+01
1.62151577e+01
1.58268788e+01
1.49467365e+01
1.62151577e+01
1.62423136e+01
1.54334509e+01
1.58268788e+01
1.62423136e+01
1.62828496e+01
1.60395458e+01
1.54334509e+01
1.62828496e+01
1.63052114e+01
1.61823029e+01
1.60395458e+01
1.63052114e+01
1.63271203e+01
1.61779015e+01
1.61823029e+01
6.79979697e+00
8.56916520e+00
7.92349628e+00
6.56648848e+00
8.56916520e+00
1.01898186e+01
8.65276298e+00
7.92349628e+00
1.01898186e+01
1.12857161e+01
9.25882961e+00
8.65276298e+00
1.12857161e+01
1.08476398e+01
9.79413187e+00
9.25882961e+00
1.08476398e+01
1.26087318e+01
1.05451924e+01
9.79413187e+00
1.26087318e+01
1.27469305e+01
1.15745855e+01
1.05451924e+01
1.27469305e+01
1.32865462e+01
1.27298057e+01
1.15745855e+01
1.32865462e+01
1.46776780e+01
1.33518913e+01
1.27298057e+01
1.46776780e+01
1.48625952e+01
1.35095144e+01
1.33518913e+01
1.48625952e+01
1.48694188e+01
1.38200452e+01
1.35095144e+01
1.48694188e+01
1.49467365e+01
1.44234540e+01
1.38200452e+01
1.49467365e+01
1.58268788e+01
1.47818877e+01
1.44234540e+01
1.58268788e+01
1.54334509e+01
1.52834336e+01
1.47818877e+01
1.54334509e+01
1.60395458e+01
1.57509183e+01
1.52834336e+01
1.60395458e+01
1.61823029e+01
1.59462430e+01
1.57509183e+01
1.61823029e+01
1.61779015e+01
1.61110742e+01
1.59462430e+01
6.56648848e+00
7.92349628e+00
7.19961050e+00
6.48708598e+00
7.92349628e+00
8.65276298e+00
7.93462129e+00
7.19961050e+00
8.65276298e+00
9.25882961e+00
8.14611394e+00
7.93462129e+00
9.25882961e+00
9.79413187e+00
9.01165601e+00
8.14611394e+00
9.79413187e+00
1.05451924e+01
9.30742188e+00
9.01165601e+00
1.05451924e+01
1.15745855e+01
1.04616166e+01
9.30742188e+00
1.15745855e+01
1.27298057e+01
1.13136103e+01
1.04616166e+01
1.27298057e+01
1.33518913e+01
1.27466541e+01
1.13136103e+01
1.33518913e+01
1.35095144e+01
1.27495726e+01
1.27466541e+01
1.35095144e+01
1.38200452e+01
1.24156797e+01
1.27495726e+01
1.38200452e+01
1.44234540e+01
1.29503750e+01
1.24156797e+01
1.44234540e+01
1.47818877e+01
1.34562475e+01
1.29503750e+01
1.47818877e+01
1.52834336e+01
1.41304471e+01
1.34562475e+01
1.52834336e+01
1.57509183e+01
1.46223244e+01
1.41304471e+01
1.57509183e+01
1.59462430e+01
1.55375683e+01
1.46223244e+01
1.59462430e+01
1.61110742e+01
1.59083824e+01
1.55375683e+01
6.48708598e+00
7.19961050e+00
6.76839832e+00
6.28318531e+00
7.19961050e+00
7.93462129e+00
7.48333653e+00
6.76839832e+00
7.93462129e+00
8.14611394e+00
7.90176840e+00
7.48333653e+00
8.14611394e+00
9.01165601e+00
8.17138302e+00
7.90176840e+00
9.01165601e+00
9.30742188e+00
8.53183366e+00
8.17138302e+00
9.30742188e+00
1.04616166e+01
9.42051482e+00
8.53183366e+00
1.04616166e+01
1.13136103e+01
1.07679753e+01
9.42051482e+00
1.13136103e+01
1.27466541e+01
1.12310995e+01
1.07679753e+01
1.27466541e+01
1.27495726e+01
1.14133276e+01
1.12310995e+01
1.27495726e+01
1.24156797e+01
1.17985465e+01
1.14133276e+01
1.24156797e+01
1.29503750e+01
1.21650102e+01
1.17985465e+01
1.29503750e+01
1.34562475e+01
1.25469116e+01
1.21650102e+01
1.34562475e+01
1.41304471e+01
1.29163817e+01
1.25469116e+01
1.41304471e+01
1.46223244e+01
1.34383448e+01
1.29163817e+01
1.46223244e+01
1.55375683e+01
1.49546031e+01
1.34383448e+01
1.55375683e+01
1.59083824e+01
1.57079633e+01
1.49546031e+01
 
