# vtk DataFile Version 3.0 
Date: 3/9/2016   Time: 9:45
ASCII 
DATASET UNSTRUCTURED_GRID 
 
POINTS 96 float 
0.250000 0.750000 0.000000 
0.000000 0.750000 0.000000 
0.250000 0.500000 0.000000 
0.000000 0.500000 0.000000 
0.000000 0.250000 0.000000 
0.250000 0.250000 0.000000 
0.750000 0.500000 0.000000 
0.750000 0.250000 0.000000 
1.000000 0.250000 0.000000 
0.750000 0.750000 0.000000 
0.750000 0.500000 0.000000 
1.000000 0.500000 0.000000 
0.500000 0.500000 0.000000 
0.250000 0.500000 0.000000 
0.500000 0.250000 0.000000 
0.250000 0.000000 0.000000 
0.000000 0.250000 0.000000 
0.000000 0.000000 0.000000 
0.000000 0.500000 0.000000 
0.250000 0.500000 0.000000 
0.000000 0.750000 0.000000 
0.250000 0.000000 0.000000 
0.250000 0.250000 0.000000 
0.000000 0.250000 0.000000 
0.750000 0.000000 0.000000 
1.000000 0.000000 0.000000 
0.750000 0.250000 0.000000 
0.500000 0.000000 0.000000 
0.500000 0.250000 0.000000 
0.250000 0.250000 0.000000 
0.250000 0.250000 0.000000 
0.250000 0.000000 0.000000 
0.500000 0.000000 0.000000 
0.250000 0.500000 0.000000 
0.000000 0.500000 0.000000 
0.250000 0.250000 0.000000 
0.750000 0.500000 0.000000 
0.750000 0.750000 0.000000 
0.500000 0.750000 0.000000 
0.000000 0.750000 0.000000 
0.250000 0.750000 0.000000 
0.000000 1.000000 0.000000 
0.500000 0.250000 0.000000 
0.250000 0.500000 0.000000 
0.250000 0.250000 0.000000 
0.500000 0.750000 0.000000 
0.250000 1.000000 0.000000 
0.250000 0.750000 0.000000 
0.500000 0.500000 0.000000 
0.250000 0.750000 0.000000 
0.250000 0.500000 0.000000 
0.250000 1.000000 0.000000 
0.000000 1.000000 0.000000 
0.250000 0.750000 0.000000 
0.500000 0.750000 0.000000 
0.500000 1.000000 0.000000 
0.250000 1.000000 0.000000 
0.500000 0.750000 0.000000 
0.750000 0.750000 0.000000 
0.500000 1.000000 0.000000 
1.000000 0.750000 0.000000 
1.000000 1.000000 0.000000 
0.750000 1.000000 0.000000 
1.000000 0.750000 0.000000 
0.750000 0.750000 0.000000 
1.000000 0.500000 0.000000 
0.500000 0.500000 0.000000 
0.500000 0.250000 0.000000 
0.750000 0.250000 0.000000 
0.750000 1.000000 0.000000 
0.750000 0.750000 0.000000 
1.000000 0.750000 0.000000 
0.750000 1.000000 0.000000 
0.500000 1.000000 0.000000 
0.750000 0.750000 0.000000 
1.000000 0.250000 0.000000 
0.750000 0.250000 0.000000 
1.000000 0.000000 0.000000 
0.750000 0.500000 0.000000 
0.500000 0.500000 0.000000 
0.750000 0.250000 0.000000 
0.500000 0.750000 0.000000 
0.500000 0.500000 0.000000 
0.750000 0.500000 0.000000 
0.500000 0.750000 0.000000 
0.250000 0.750000 0.000000 
0.500000 0.500000 0.000000 
0.500000 0.250000 0.000000 
0.500000 0.000000 0.000000 
0.750000 0.000000 0.000000 
0.500000 0.250000 0.000000 
0.750000 0.000000 0.000000 
0.750000 0.250000 0.000000 
1.000000 0.500000 0.000000 
0.750000 0.500000 0.000000 
1.000000 0.250000 0.000000 
CELLS 32 128 
 3 0 1 2  
 3 3 4 5  
 3 6 7 8  
 3 9 10 11  
 3 12 13 14  
 3 15 16 17  
 3 18 19 20  
 3 21 22 23  
 3 24 25 26  
 3 27 28 29  
 3 30 31 32  
 3 33 34 35  
 3 36 37 38  
 3 39 40 41  
 3 42 43 44  
 3 45 46 47  
 3 48 49 50  
 3 51 52 53  
 3 54 55 56  
 3 57 58 59  
 3 60 61 62  
 3 63 64 65  
 3 66 67 68  
 3 69 70 71  
 3 72 73 74  
 3 75 76 77  
 3 78 79 80  
 3 81 82 83  
 3 84 85 86  
 3 87 88 89  
 3 90 91 92  
 3 93 94 95  
 
CELL_TYPES 32
7
7
7
7
7
7
7
7
7
7
7
7
7
7
7
7
7
7
7
7
7
7
7
7
7
7
7
7
7
7
7
7
CELL_DATA 32
FIELD FieldData 1
material 1 32 int
1
1
1
1
1
1
1
1
1
1
1
1
1
1
1
1
1
1
1
1
1
1
1
1
1
1
1
1
1
1
1
1
POINT_DATA 96 SCALARS flux_g1 double 
LOOKUP_TABLE   default 
0.686576
1.298919
0.695876
1.371259
1.371259
0.649576
0.000000
0.000000
0.000000
0.000000
0.000000
0.000000
0.333214
0.638248
0.342477
0.649576
1.371259
1.371259
1.371259
0.649576
1.371259
0.695876
0.686576
1.298919
0.162920
0.073622
0.157047
0.342477
0.333214
0.638248
0.666118
0.674008
0.314507
0.686576
1.298919
0.695876
0.000000
0.000000
0.000000
1.371259
0.649576
1.371259
0.314507
0.666118
0.674008
0.000000
0.000000
0.000000
0.314507
0.666118
0.674008
0.000000
0.000000
0.000000
0.000000
0.000000
0.000000
0.000000
0.000000
0.000000
0.000000
0.000000
0.000000
0.000000
0.000000
0.000000
0.323487
0.331347
0.152204
0.000000
0.000000
0.000000
0.000000
0.000000
0.000000
0.000000
0.000000
0.000000
0.000000
0.000000
0.000000
0.000000
0.000000
0.000000
0.000000
0.000000
0.000000
0.323487
0.331347
0.152204
0.313665
0.168585
0.161663
0.000000
0.000000
0.000000
 
