# vtk DataFile Version 3.0 
Date: 3/9/2016   Time: 9:45
ASCII 
DATASET UNSTRUCTURED_GRID 
 
POINTS 24 float 
0.000000 0.000000 0.000000 
0.500000 0.000000 0.000000 
0.000000 0.500000 0.000000 
0.500000 0.000000 0.000000 
0.500000 0.500000 0.000000 
0.000000 0.500000 0.000000 
0.000000 0.500000 0.000000 
0.500000 0.500000 0.000000 
0.000000 1.000000 0.000000 
0.500000 0.500000 0.000000 
1.000000 0.500000 0.000000 
0.500000 1.000000 0.000000 
0.000000 1.000000 0.000000 
0.500000 0.500000 0.000000 
0.500000 1.000000 0.000000 
0.500000 0.000000 0.000000 
1.000000 0.000000 0.000000 
0.500000 0.500000 0.000000 
0.500000 1.000000 0.000000 
1.000000 0.500000 0.000000 
1.000000 1.000000 0.000000 
0.500000 0.500000 0.000000 
1.000000 0.000000 0.000000 
1.000000 0.500000 0.000000 
CELLS 8 32 
 3 0 1 2  
 3 3 4 5  
 3 6 7 8  
 3 9 10 11  
 3 12 13 14  
 3 15 16 17  
 3 18 19 20  
 3 21 22 23  
 
CELL_TYPES 8
7
7
7
7
7
7
7
7
CELL_DATA 8
FIELD FieldData 1
material 1 8 int
1
1
1
1
1
1
1
1
POINT_DATA 24 SCALARS flux_g1 double 
LOOKUP_TABLE   default 
1.286588
0.214469
1.286588
0.348400
0.312754
1.102749
1.286588
0.214469
1.286588
0.000000
0.000000
0.000000
0.000000
0.000000
0.000000
0.313048
0.042333
0.286781
0.000000
0.000000
0.000000
0.000000
0.000000
0.000000
 
