# vtk DataFile Version 3.0 
Date: 3/8/2016   Time: 14:31
ASCII 
DATASET UNSTRUCTURED_GRID 
 
POINTS 192 float 
0.250000 0.750000 0.000000 
0.125000 0.750000 0.000000 
0.000000 0.750000 0.000000 
0.125000 0.625000 0.000000 
0.250000 0.500000 0.000000 
0.250000 0.625000 0.000000 
0.000000 0.500000 0.000000 
0.000000 0.375000 0.000000 
0.000000 0.250000 0.000000 
0.125000 0.250000 0.000000 
0.250000 0.250000 0.000000 
0.125000 0.375000 0.000000 
0.750000 0.500000 0.000000 
0.750000 0.375000 0.000000 
0.750000 0.250000 0.000000 
0.875000 0.250000 0.000000 
1.000000 0.250000 0.000000 
0.875000 0.375000 0.000000 
0.750000 0.750000 0.000000 
0.750000 0.625000 0.000000 
0.750000 0.500000 0.000000 
0.875000 0.500000 0.000000 
1.000000 0.500000 0.000000 
0.875000 0.625000 0.000000 
0.500000 0.500000 0.000000 
0.375000 0.500000 0.000000 
0.250000 0.500000 0.000000 
0.375000 0.375000 0.000000 
0.500000 0.250000 0.000000 
0.500000 0.375000 0.000000 
0.250000 0.000000 0.000000 
0.125000 0.125000 0.000000 
0.000000 0.250000 0.000000 
0.000000 0.125000 0.000000 
0.000000 0.000000 0.000000 
0.125000 0.000000 0.000000 
0.000000 0.500000 0.000000 
0.125000 0.500000 0.000000 
0.250000 0.500000 0.000000 
0.125000 0.625000 0.000000 
0.000000 0.750000 0.000000 
0.000000 0.625000 0.000000 
0.250000 0.000000 0.000000 
0.250000 0.125000 0.000000 
0.250000 0.250000 0.000000 
0.125000 0.250000 0.000000 
0.000000 0.250000 0.000000 
0.125000 0.125000 0.000000 
0.750000 0.000000 0.000000 
0.875000 0.000000 0.000000 
1.000000 0.000000 0.000000 
0.875000 0.125000 0.000000 
0.750000 0.250000 0.000000 
0.750000 0.125000 0.000000 
0.500000 0.000000 0.000000 
0.500000 0.125000 0.000000 
0.500000 0.250000 0.000000 
0.375000 0.250000 0.000000 
0.250000 0.250000 0.000000 
0.375000 0.125000 0.000000 
0.250000 0.250000 0.000000 
0.250000 0.125000 0.000000 
0.250000 0.000000 0.000000 
0.375000 0.000000 0.000000 
0.500000 0.000000 0.000000 
0.375000 0.125000 0.000000 
0.250000 0.500000 0.000000 
0.125000 0.500000 0.000000 
0.000000 0.500000 0.000000 
0.125000 0.375000 0.000000 
0.250000 0.250000 0.000000 
0.250000 0.375000 0.000000 
0.750000 0.500000 0.000000 
0.750000 0.625000 0.000000 
0.750000 0.750000 0.000000 
0.625000 0.750000 0.000000 
0.500000 0.750000 0.000000 
0.625000 0.625000 0.000000 
0.000000 0.750000 0.000000 
0.125000 0.750000 0.000000 
0.250000 0.750000 0.000000 
0.125000 0.875000 0.000000 
0.000000 1.000000 0.000000 
0.000000 0.875000 0.000000 
0.500000 0.250000 0.000000 
0.375000 0.375000 0.000000 
0.250000 0.500000 0.000000 
0.250000 0.375000 0.000000 
0.250000 0.250000 0.000000 
0.375000 0.250000 0.000000 
0.500000 0.750000 0.000000 
0.375000 0.875000 0.000000 
0.250000 1.000000 0.000000 
0.250000 0.875000 0.000000 
0.250000 0.750000 0.000000 
0.375000 0.750000 0.000000 
0.500000 0.500000 0.000000 
0.375000 0.625000 0.000000 
0.250000 0.750000 0.000000 
0.250000 0.625000 0.000000 
0.250000 0.500000 0.000000 
0.375000 0.500000 0.000000 
0.250000 1.000000 0.000000 
0.125000 1.000000 0.000000 
0.000000 1.000000 0.000000 
0.125000 0.875000 0.000000 
0.250000 0.750000 0.000000 
0.250000 0.875000 0.000000 
0.500000 0.750000 0.000000 
0.500000 0.875000 0.000000 
0.500000 1.000000 0.000000 
0.375000 1.000000 0.000000 
0.250000 1.000000 0.000000 
0.375000 0.875000 0.000000 
0.500000 0.750000 0.000000 
0.625000 0.750000 0.000000 
0.750000 0.750000 0.000000 
0.625000 0.875000 0.000000 
0.500000 1.000000 0.000000 
0.500000 0.875000 0.000000 
1.000000 0.750000 0.000000 
1.000000 0.875000 0.000000 
1.000000 1.000000 0.000000 
0.875000 1.000000 0.000000 
0.750000 1.000000 0.000000 
0.875000 0.875000 0.000000 
1.000000 0.750000 0.000000 
0.875000 0.750000 0.000000 
0.750000 0.750000 0.000000 
0.875000 0.625000 0.000000 
1.000000 0.500000 0.000000 
1.000000 0.625000 0.000000 
0.500000 0.500000 0.000000 
0.500000 0.375000 0.000000 
0.500000 0.250000 0.000000 
0.625000 0.250000 0.000000 
0.750000 0.250000 0.000000 
0.625000 0.375000 0.000000 
0.750000 1.000000 0.000000 
0.750000 0.875000 0.000000 
0.750000 0.750000 0.000000 
0.875000 0.750000 0.000000 
1.000000 0.750000 0.000000 
0.875000 0.875000 0.000000 
0.750000 1.000000 0.000000 
0.625000 1.000000 0.000000 
0.500000 1.000000 0.000000 
0.625000 0.875000 0.000000 
0.750000 0.750000 0.000000 
0.750000 0.875000 0.000000 
1.000000 0.250000 0.000000 
0.875000 0.250000 0.000000 
0.750000 0.250000 0.000000 
0.875000 0.125000 0.000000 
1.000000 0.000000 0.000000 
1.000000 0.125000 0.000000 
0.750000 0.500000 0.000000 
0.625000 0.500000 0.000000 
0.500000 0.500000 0.000000 
0.625000 0.375000 0.000000 
0.750000 0.250000 0.000000 
0.750000 0.375000 0.000000 
0.500000 0.750000 0.000000 
0.500000 0.625000 0.000000 
0.500000 0.500000 0.000000 
0.625000 0.500000 0.000000 
0.750000 0.500000 0.000000 
0.625000 0.625000 0.000000 
0.500000 0.750000 0.000000 
0.375000 0.750000 0.000000 
0.250000 0.750000 0.000000 
0.375000 0.625000 0.000000 
0.500000 0.500000 0.000000 
0.500000 0.625000 0.000000 
0.500000 0.250000 0.000000 
0.500000 0.125000 0.000000 
0.500000 0.000000 0.000000 
0.625000 0.000000 0.000000 
0.750000 0.000000 0.000000 
0.625000 0.125000 0.000000 
0.500000 0.250000 0.000000 
0.625000 0.125000 0.000000 
0.750000 0.000000 0.000000 
0.750000 0.125000 0.000000 
0.750000 0.250000 0.000000 
0.625000 0.250000 0.000000 
1.000000 0.500000 0.000000 
0.875000 0.500000 0.000000 
0.750000 0.500000 0.000000 
0.875000 0.375000 0.000000 
1.000000 0.250000 0.000000 
1.000000 0.375000 0.000000 
CELLS 32 224 
 6 0 1 2 3 4 5  
 6 6 7 8 9 10 11  
 6 12 13 14 15 16 17  
 6 18 19 20 21 22 23  
 6 24 25 26 27 28 29  
 6 30 31 32 33 34 35  
 6 36 37 38 39 40 41  
 6 42 43 44 45 46 47  
 6 48 49 50 51 52 53  
 6 54 55 56 57 58 59  
 6 60 61 62 63 64 65  
 6 66 67 68 69 70 71  
 6 72 73 74 75 76 77  
 6 78 79 80 81 82 83  
 6 84 85 86 87 88 89  
 6 90 91 92 93 94 95  
 6 96 97 98 99 100 101  
 6 102 103 104 105 106 107  
 6 108 109 110 111 112 113  
 6 114 115 116 117 118 119  
 6 120 121 122 123 124 125  
 6 126 127 128 129 130 131  
 6 132 133 134 135 136 137  
 6 138 139 140 141 142 143  
 6 144 145 146 147 148 149  
 6 150 151 152 153 154 155  
 6 156 157 158 159 160 161  
 6 162 163 164 165 166 167  
 6 168 169 170 171 172 173  
 6 174 175 176 177 178 179  
 6 180 181 182 183 184 185  
 6 186 187 188 189 190 191  
 
CELL_TYPES 32
7
7
7
7
7
7
7
7
7
7
7
7
7
7
7
7
7
7
7
7
7
7
7
7
7
7
7
7
7
7
7
7
CELL_DATA 32
FIELD FieldData 1
material 1 32 int
1
1
1
1
1
1
1
1
1
1
1
1
1
1
1
1
1
1
1
1
1
1
1
1
1
1
1
1
1
1
1
1
POINT_DATA 192 SCALARS flux_g1 double 
LOOKUP_TABLE   default 
0.692634
0.933629
1.403052
0.934428
0.692536
0.691886
1.411171
1.411171
1.411171
0.925469
0.695389
0.925469
0.000000
0.000000
0.000000
0.000000
0.000000
0.000000
0.000000
0.000000
0.000000
0.000000
0.000000
0.000000
0.339232
0.456784
0.687021
0.457575
0.339135
0.338492
0.695389
0.925469
1.411171
1.411171
1.411171
0.925469
1.411171
0.925469
0.695389
0.925469
1.411171
1.411171
0.692536
0.691886
0.692634
0.933629
1.403052
0.934428
0.165690
0.108356
0.081719
0.108745
0.165777
0.165275
0.339135
0.338492
0.339232
0.456784
0.687021
0.457575
0.691128
0.690443
0.691007
0.452758
0.340608
0.453288
0.692634
0.933629
1.403052
0.934428
0.692536
0.691886
0.000000
0.000000
0.000000
0.000000
0.000000
0.000000
1.411171
0.925469
0.695389
0.925469
1.411171
1.411171
0.340608
0.453288
0.691128
0.690443
0.691007
0.452758
0.000000
0.000000
0.000000
0.000000
0.000000
0.000000
0.340608
0.453288
0.691128
0.690443
0.691007
0.452758
0.000000
0.000000
0.000000
0.000000
0.000000
0.000000
0.000000
0.000000
0.000000
0.000000
0.000000
0.000000
0.000000
0.000000
0.000000
0.000000
0.000000
0.000000
0.000000
0.000000
0.000000
0.000000
0.000000
0.000000
0.000000
0.000000
0.000000
0.000000
0.000000
0.000000
0.338486
0.337808
0.338367
0.221494
0.166834
0.222019
0.000000
0.000000
0.000000
0.000000
0.000000
0.000000
0.000000
0.000000
0.000000
0.000000
0.000000
0.000000
0.000000
0.000000
0.000000
0.000000
0.000000
0.000000
0.000000
0.000000
0.000000
0.000000
0.000000
0.000000
0.000000
0.000000
0.000000
0.000000
0.000000
0.000000
0.000000
0.000000
0.000000
0.000000
0.000000
0.000000
0.338486
0.337808
0.338367
0.221494
0.166834
0.222019
0.336410
0.224069
0.166076
0.165598
0.166147
0.223481
0.000000
0.000000
0.000000
0.000000
0.000000
0.000000
 
