# vtk DataFile Version 3.0 
Date: 3/9/2016   Time: 9:37
ASCII 
DATASET UNSTRUCTURED_GRID 
 
POINTS 96 float 
0.250000 0.750000 0.000000 
0.000000 0.750000 0.000000 
0.250000 0.500000 0.000000 
0.000000 0.500000 0.000000 
0.000000 0.250000 0.000000 
0.250000 0.250000 0.000000 
0.750000 0.500000 0.000000 
0.750000 0.250000 0.000000 
1.000000 0.250000 0.000000 
0.750000 0.750000 0.000000 
0.750000 0.500000 0.000000 
1.000000 0.500000 0.000000 
0.500000 0.500000 0.000000 
0.250000 0.500000 0.000000 
0.500000 0.250000 0.000000 
0.250000 0.000000 0.000000 
0.000000 0.250000 0.000000 
0.000000 0.000000 0.000000 
0.000000 0.500000 0.000000 
0.250000 0.500000 0.000000 
0.000000 0.750000 0.000000 
0.250000 0.000000 0.000000 
0.250000 0.250000 0.000000 
0.000000 0.250000 0.000000 
0.750000 0.000000 0.000000 
1.000000 0.000000 0.000000 
0.750000 0.250000 0.000000 
0.500000 0.000000 0.000000 
0.500000 0.250000 0.000000 
0.250000 0.250000 0.000000 
0.250000 0.250000 0.000000 
0.250000 0.000000 0.000000 
0.500000 0.000000 0.000000 
0.250000 0.500000 0.000000 
0.000000 0.500000 0.000000 
0.250000 0.250000 0.000000 
0.750000 0.500000 0.000000 
0.750000 0.750000 0.000000 
0.500000 0.750000 0.000000 
0.000000 0.750000 0.000000 
0.250000 0.750000 0.000000 
0.000000 1.000000 0.000000 
0.500000 0.250000 0.000000 
0.250000 0.500000 0.000000 
0.250000 0.250000 0.000000 
0.500000 0.750000 0.000000 
0.250000 1.000000 0.000000 
0.250000 0.750000 0.000000 
0.500000 0.500000 0.000000 
0.250000 0.750000 0.000000 
0.250000 0.500000 0.000000 
0.250000 1.000000 0.000000 
0.000000 1.000000 0.000000 
0.250000 0.750000 0.000000 
0.500000 0.750000 0.000000 
0.500000 1.000000 0.000000 
0.250000 1.000000 0.000000 
0.500000 0.750000 0.000000 
0.750000 0.750000 0.000000 
0.500000 1.000000 0.000000 
1.000000 0.750000 0.000000 
1.000000 1.000000 0.000000 
0.750000 1.000000 0.000000 
1.000000 0.750000 0.000000 
0.750000 0.750000 0.000000 
1.000000 0.500000 0.000000 
0.500000 0.500000 0.000000 
0.500000 0.250000 0.000000 
0.750000 0.250000 0.000000 
0.750000 1.000000 0.000000 
0.750000 0.750000 0.000000 
1.000000 0.750000 0.000000 
0.750000 1.000000 0.000000 
0.500000 1.000000 0.000000 
0.750000 0.750000 0.000000 
1.000000 0.250000 0.000000 
0.750000 0.250000 0.000000 
1.000000 0.000000 0.000000 
0.750000 0.500000 0.000000 
0.500000 0.500000 0.000000 
0.750000 0.250000 0.000000 
0.500000 0.750000 0.000000 
0.500000 0.500000 0.000000 
0.750000 0.500000 0.000000 
0.500000 0.750000 0.000000 
0.250000 0.750000 0.000000 
0.500000 0.500000 0.000000 
0.500000 0.250000 0.000000 
0.500000 0.000000 0.000000 
0.750000 0.000000 0.000000 
0.500000 0.250000 0.000000 
0.750000 0.000000 0.000000 
0.750000 0.250000 0.000000 
1.000000 0.500000 0.000000 
0.750000 0.500000 0.000000 
1.000000 0.250000 0.000000 
CELLS 32 128 
 3 0 1 2  
 3 3 4 5  
 3 6 7 8  
 3 9 10 11  
 3 12 13 14  
 3 15 16 17  
 3 18 19 20  
 3 21 22 23  
 3 24 25 26  
 3 27 28 29  
 3 30 31 32  
 3 33 34 35  
 3 36 37 38  
 3 39 40 41  
 3 42 43 44  
 3 45 46 47  
 3 48 49 50  
 3 51 52 53  
 3 54 55 56  
 3 57 58 59  
 3 60 61 62  
 3 63 64 65  
 3 66 67 68  
 3 69 70 71  
 3 72 73 74  
 3 75 76 77  
 3 78 79 80  
 3 81 82 83  
 3 84 85 86  
 3 87 88 89  
 3 90 91 92  
 3 93 94 95  
 
CELL_TYPES 32
7
7
7
7
7
7
7
7
7
7
7
7
7
7
7
7
7
7
7
7
7
7
7
7
7
7
7
7
7
7
7
7
CELL_DATA 32
FIELD FieldData 1
material 1 32 int
1
1
1
1
1
1
1
1
1
1
1
1
1
1
1
1
1
1
1
1
1
1
1
1
1
1
1
1
1
1
1
1
POINT_DATA 96 SCALARS flux_g1 double 
LOOKUP_TABLE   default 
-0.005481
0.006118
-0.000143
0.112420
0.112420
-0.106295
0.000000
0.000000
0.000000
0.000000
0.000000
0.000000
0.000013
-0.000003
-0.000005
-0.106295
0.112420
0.112420
0.112420
-0.106295
0.112420
-0.000143
-0.005481
0.006118
0.000000
0.000000
-0.000000
-0.000005
0.000013
-0.000003
-0.000367
-0.000084
0.000209
-0.005481
0.006118
-0.000143
0.000000
0.000000
0.000000
0.112420
-0.106295
0.112420
0.000209
-0.000367
-0.000084
0.000000
0.000000
0.000000
0.000209
-0.000367
-0.000084
0.000000
0.000000
0.000000
0.000000
0.000000
0.000000
0.000000
0.000000
0.000000
0.000000
0.000000
0.000000
0.000000
0.000000
0.000000
0.000001
-0.000000
-0.000000
0.000000
0.000000
0.000000
0.000000
0.000000
0.000000
0.000000
0.000000
0.000000
0.000000
0.000000
0.000000
0.000000
0.000000
0.000000
0.000000
0.000000
0.000000
0.000001
-0.000000
-0.000000
-0.000000
0.000000
-0.000000
0.000000
0.000000
0.000000
 
