# vtk DataFile Version 3.0 
Date: 3/8/2016   Time: 14:31
ASCII 
DATASET UNSTRUCTURED_GRID 
 
POINTS 768 float 
0.250000 0.750000 0.000000 
0.187500 0.750000 0.000000 
0.125000 0.750000 0.000000 
0.187500 0.687500 0.000000 
0.250000 0.625000 0.000000 
0.250000 0.687500 0.000000 
0.000000 0.500000 0.000000 
0.000000 0.437500 0.000000 
0.000000 0.375000 0.000000 
0.062500 0.375000 0.000000 
0.125000 0.375000 0.000000 
0.062500 0.437500 0.000000 
0.750000 0.500000 0.000000 
0.750000 0.437500 0.000000 
0.750000 0.375000 0.000000 
0.812500 0.375000 0.000000 
0.875000 0.375000 0.000000 
0.812500 0.437500 0.000000 
0.750000 0.750000 0.000000 
0.750000 0.687500 0.000000 
0.750000 0.625000 0.000000 
0.812500 0.625000 0.000000 
0.875000 0.625000 0.000000 
0.812500 0.687500 0.000000 
0.500000 0.500000 0.000000 
0.437500 0.500000 0.000000 
0.375000 0.500000 0.000000 
0.437500 0.437500 0.000000 
0.500000 0.375000 0.000000 
0.500000 0.437500 0.000000 
0.250000 0.000000 0.000000 
0.187500 0.062500 0.000000 
0.125000 0.125000 0.000000 
0.125000 0.062500 0.000000 
0.125000 0.000000 0.000000 
0.187500 0.000000 0.000000 
0.000000 0.500000 0.000000 
0.062500 0.500000 0.000000 
0.125000 0.500000 0.000000 
0.062500 0.562500 0.000000 
0.000000 0.625000 0.000000 
0.000000 0.562500 0.000000 
0.250000 0.000000 0.000000 
0.250000 0.062500 0.000000 
0.250000 0.125000 0.000000 
0.187500 0.125000 0.000000 
0.125000 0.125000 0.000000 
0.187500 0.062500 0.000000 
0.750000 0.000000 0.000000 
0.812500 0.000000 0.000000 
0.875000 0.000000 0.000000 
0.812500 0.062500 0.000000 
0.750000 0.125000 0.000000 
0.750000 0.062500 0.000000 
0.500000 0.000000 0.000000 
0.500000 0.062500 0.000000 
0.500000 0.125000 0.000000 
0.437500 0.125000 0.000000 
0.375000 0.125000 0.000000 
0.437500 0.062500 0.000000 
0.250000 0.250000 0.000000 
0.250000 0.187500 0.000000 
0.250000 0.125000 0.000000 
0.312500 0.125000 0.000000 
0.375000 0.125000 0.000000 
0.312500 0.187500 0.000000 
0.250000 0.500000 0.000000 
0.187500 0.500000 0.000000 
0.125000 0.500000 0.000000 
0.187500 0.437500 0.000000 
0.250000 0.375000 0.000000 
0.250000 0.437500 0.000000 
0.750000 0.500000 0.000000 
0.750000 0.562500 0.000000 
0.750000 0.625000 0.000000 
0.687500 0.625000 0.000000 
0.625000 0.625000 0.000000 
0.687500 0.562500 0.000000 
0.000000 0.750000 0.000000 
0.062500 0.750000 0.000000 
0.125000 0.750000 0.000000 
0.062500 0.812500 0.000000 
0.000000 0.875000 0.000000 
0.000000 0.812500 0.000000 
0.500000 0.250000 0.000000 
0.437500 0.312500 0.000000 
0.375000 0.375000 0.000000 
0.375000 0.312500 0.000000 
0.375000 0.250000 0.000000 
0.437500 0.250000 0.000000 
0.500000 0.750000 0.000000 
0.437500 0.812500 0.000000 
0.375000 0.875000 0.000000 
0.375000 0.812500 0.000000 
0.375000 0.750000 0.000000 
0.437500 0.750000 0.000000 
0.500000 0.500000 0.000000 
0.437500 0.562500 0.000000 
0.375000 0.625000 0.000000 
0.375000 0.562500 0.000000 
0.375000 0.500000 0.000000 
0.437500 0.500000 0.000000 
0.250000 1.000000 0.000000 
0.187500 1.000000 0.000000 
0.125000 1.000000 0.000000 
0.187500 0.937500 0.000000 
0.250000 0.875000 0.000000 
0.250000 0.937500 0.000000 
0.500000 0.750000 0.000000 
0.500000 0.812500 0.000000 
0.500000 0.875000 0.000000 
0.437500 0.875000 0.000000 
0.375000 0.875000 0.000000 
0.437500 0.812500 0.000000 
0.500000 0.750000 0.000000 
0.562500 0.750000 0.000000 
0.625000 0.750000 0.000000 
0.562500 0.812500 0.000000 
0.500000 0.875000 0.000000 
0.500000 0.812500 0.000000 
1.000000 0.750000 0.000000 
1.000000 0.812500 0.000000 
1.000000 0.875000 0.000000 
0.937500 0.875000 0.000000 
0.875000 0.875000 0.000000 
0.937500 0.812500 0.000000 
1.000000 0.750000 0.000000 
0.937500 0.750000 0.000000 
0.875000 0.750000 0.000000 
0.937500 0.687500 0.000000 
1.000000 0.625000 0.000000 
1.000000 0.687500 0.000000 
0.500000 0.500000 0.000000 
0.500000 0.437500 0.000000 
0.500000 0.375000 0.000000 
0.562500 0.375000 0.000000 
0.625000 0.375000 0.000000 
0.562500 0.437500 0.000000 
0.750000 1.000000 0.000000 
0.750000 0.937500 0.000000 
0.750000 0.875000 0.000000 
0.812500 0.875000 0.000000 
0.875000 0.875000 0.000000 
0.812500 0.937500 0.000000 
0.750000 1.000000 0.000000 
0.687500 1.000000 0.000000 
0.625000 1.000000 0.000000 
0.687500 0.937500 0.000000 
0.750000 0.875000 0.000000 
0.750000 0.937500 0.000000 
1.000000 0.250000 0.000000 
0.937500 0.250000 0.000000 
0.875000 0.250000 0.000000 
0.937500 0.187500 0.000000 
1.000000 0.125000 0.000000 
1.000000 0.187500 0.000000 
0.750000 0.500000 0.000000 
0.687500 0.500000 0.000000 
0.625000 0.500000 0.000000 
0.687500 0.437500 0.000000 
0.750000 0.375000 0.000000 
0.750000 0.437500 0.000000 
0.500000 0.750000 0.000000 
0.500000 0.687500 0.000000 
0.500000 0.625000 0.000000 
0.562500 0.625000 0.000000 
0.625000 0.625000 0.000000 
0.562500 0.687500 0.000000 
0.500000 0.750000 0.000000 
0.437500 0.750000 0.000000 
0.375000 0.750000 0.000000 
0.437500 0.687500 0.000000 
0.500000 0.625000 0.000000 
0.500000 0.687500 0.000000 
0.500000 0.250000 0.000000 
0.500000 0.187500 0.000000 
0.500000 0.125000 0.000000 
0.562500 0.125000 0.000000 
0.625000 0.125000 0.000000 
0.562500 0.187500 0.000000 
0.500000 0.250000 0.000000 
0.562500 0.187500 0.000000 
0.625000 0.125000 0.000000 
0.625000 0.187500 0.000000 
0.625000 0.250000 0.000000 
0.562500 0.250000 0.000000 
1.000000 0.500000 0.000000 
0.937500 0.500000 0.000000 
0.875000 0.500000 0.000000 
0.937500 0.437500 0.000000 
1.000000 0.375000 0.000000 
1.000000 0.437500 0.000000 
0.000000 0.750000 0.000000 
0.062500 0.687500 0.000000 
0.125000 0.625000 0.000000 
0.125000 0.687500 0.000000 
0.125000 0.750000 0.000000 
0.062500 0.750000 0.000000 
0.250000 0.500000 0.000000 
0.250000 0.562500 0.000000 
0.250000 0.625000 0.000000 
0.187500 0.625000 0.000000 
0.125000 0.625000 0.000000 
0.187500 0.562500 0.000000 
0.125000 0.750000 0.000000 
0.125000 0.687500 0.000000 
0.125000 0.625000 0.000000 
0.187500 0.625000 0.000000 
0.250000 0.625000 0.000000 
0.187500 0.687500 0.000000 
0.000000 0.250000 0.000000 
0.062500 0.250000 0.000000 
0.125000 0.250000 0.000000 
0.062500 0.312500 0.000000 
0.000000 0.375000 0.000000 
0.000000 0.312500 0.000000 
0.250000 0.250000 0.000000 
0.187500 0.312500 0.000000 
0.125000 0.375000 0.000000 
0.125000 0.312500 0.000000 
0.125000 0.250000 0.000000 
0.187500 0.250000 0.000000 
0.000000 0.375000 0.000000 
0.062500 0.312500 0.000000 
0.125000 0.250000 0.000000 
0.125000 0.312500 0.000000 
0.125000 0.375000 0.000000 
0.062500 0.375000 0.000000 
0.750000 0.250000 0.000000 
0.812500 0.250000 0.000000 
0.875000 0.250000 0.000000 
0.812500 0.312500 0.000000 
0.750000 0.375000 0.000000 
0.750000 0.312500 0.000000 
1.000000 0.250000 0.000000 
0.937500 0.312500 0.000000 
0.875000 0.375000 0.000000 
0.875000 0.312500 0.000000 
0.875000 0.250000 0.000000 
0.937500 0.250000 0.000000 
0.750000 0.375000 0.000000 
0.812500 0.312500 0.000000 
0.875000 0.250000 0.000000 
0.875000 0.312500 0.000000 
0.875000 0.375000 0.000000 
0.812500 0.375000 0.000000 
0.750000 0.500000 0.000000 
0.812500 0.500000 0.000000 
0.875000 0.500000 0.000000 
0.812500 0.562500 0.000000 
0.750000 0.625000 0.000000 
0.750000 0.562500 0.000000 
1.000000 0.500000 0.000000 
0.937500 0.562500 0.000000 
0.875000 0.625000 0.000000 
0.875000 0.562500 0.000000 
0.875000 0.500000 0.000000 
0.937500 0.500000 0.000000 
0.750000 0.625000 0.000000 
0.812500 0.562500 0.000000 
0.875000 0.500000 0.000000 
0.875000 0.562500 0.000000 
0.875000 0.625000 0.000000 
0.812500 0.625000 0.000000 
0.250000 0.500000 0.000000 
0.312500 0.437500 0.000000 
0.375000 0.375000 0.000000 
0.375000 0.437500 0.000000 
0.375000 0.500000 0.000000 
0.312500 0.500000 0.000000 
0.500000 0.250000 0.000000 
0.500000 0.312500 0.000000 
0.500000 0.375000 0.000000 
0.437500 0.375000 0.000000 
0.375000 0.375000 0.000000 
0.437500 0.312500 0.000000 
0.375000 0.500000 0.000000 
0.375000 0.437500 0.000000 
0.375000 0.375000 0.000000 
0.437500 0.375000 0.000000 
0.500000 0.375000 0.000000 
0.437500 0.437500 0.000000 
0.000000 0.250000 0.000000 
0.000000 0.187500 0.000000 
0.000000 0.125000 0.000000 
0.062500 0.125000 0.000000 
0.125000 0.125000 0.000000 
0.062500 0.187500 0.000000 
0.000000 0.000000 0.000000 
0.062500 0.000000 0.000000 
0.125000 0.000000 0.000000 
0.062500 0.062500 0.000000 
0.000000 0.125000 0.000000 
0.000000 0.062500 0.000000 
0.125000 0.125000 0.000000 
0.062500 0.125000 0.000000 
0.000000 0.125000 0.000000 
0.062500 0.062500 0.000000 
0.125000 0.000000 0.000000 
0.125000 0.062500 0.000000 
0.250000 0.500000 0.000000 
0.187500 0.562500 0.000000 
0.125000 0.625000 0.000000 
0.125000 0.562500 0.000000 
0.125000 0.500000 0.000000 
0.187500 0.500000 0.000000 
0.000000 0.750000 0.000000 
0.000000 0.687500 0.000000 
0.000000 0.625000 0.000000 
0.062500 0.625000 0.000000 
0.125000 0.625000 0.000000 
0.062500 0.687500 0.000000 
0.125000 0.500000 0.000000 
0.125000 0.562500 0.000000 
0.125000 0.625000 0.000000 
0.062500 0.625000 0.000000 
0.000000 0.625000 0.000000 
0.062500 0.562500 0.000000 
0.250000 0.250000 0.000000 
0.187500 0.250000 0.000000 
0.125000 0.250000 0.000000 
0.187500 0.187500 0.000000 
0.250000 0.125000 0.000000 
0.250000 0.187500 0.000000 
0.000000 0.250000 0.000000 
0.062500 0.187500 0.000000 
0.125000 0.125000 0.000000 
0.125000 0.187500 0.000000 
0.125000 0.250000 0.000000 
0.062500 0.250000 0.000000 
0.250000 0.125000 0.000000 
0.187500 0.187500 0.000000 
0.125000 0.250000 0.000000 
0.125000 0.187500 0.000000 
0.125000 0.125000 0.000000 
0.187500 0.125000 0.000000 
1.000000 0.000000 0.000000 
0.937500 0.062500 0.000000 
0.875000 0.125000 0.000000 
0.875000 0.062500 0.000000 
0.875000 0.000000 0.000000 
0.937500 0.000000 0.000000 
0.750000 0.250000 0.000000 
0.750000 0.187500 0.000000 
0.750000 0.125000 0.000000 
0.812500 0.125000 0.000000 
0.875000 0.125000 0.000000 
0.812500 0.187500 0.000000 
0.875000 0.000000 0.000000 
0.875000 0.062500 0.000000 
0.875000 0.125000 0.000000 
0.812500 0.125000 0.000000 
0.750000 0.125000 0.000000 
[...]
CELL_DATA 128
FIELD FieldData 1
material 1 128 int
1
1
1
1
1
1
1
1
1
1
1
1
1
1
1
1
1
1
1
1
1
1
1
1
1
1
1
1
1
1
1
1
1
1
1
1
1
1
1
1
1
1
1
1
1
1
1
1
1
1
1
1
1
1
1
1
1
1
1
1
1
1
1
1
1
1
1
1
1
1
1
1
1
1
1
1
1
1
1
1
1
1
1
1
1
1
1
1
1
1
1
1
1
1
1
1
1
1
1
1
1
1
1
1
1
1
1
1
1
1
1
1
1
1
1
1
1
1
1
1
1
1
1
1
1
1
1
1
POINT_DATA 768 SCALARS flux_g1 double 
LOOKUP_TABLE   default 
0.692380
0.815311
0.988318
0.815408
0.692373
0.692287
1.413763
1.413763
1.413763
1.164023
0.989958
1.164023
0.000000
0.000000
0.000000
0.000000
0.000000
0.000000
0.000000
0.000000
0.000000
0.000000
0.000000
0.000000
0.338980
0.399113
0.483860
0.399208
0.338974
0.338888
0.692680
0.814473
0.989216
0.989152
0.989210
0.814417
1.413763
1.164023
0.989958
1.164023
1.413763
1.413763
0.692373
0.692287
0.692380
0.815311
0.988318
0.815408
0.165901
0.136544
0.116175
0.136601
0.165906
0.165842
0.338974
0.338888
0.338980
0.399113
0.483860
0.399208
0.692158
0.692069
0.692150
0.569813
0.484673
0.569891
0.692380
0.815311
0.988318
0.815408
0.692373
0.692287
0.000000
0.000000
0.000000
0.000000
0.000000
0.000000
1.413763
1.164023
0.989958
1.164023
1.413763
1.413763
0.339128
0.398756
0.484306
0.484212
0.484297
0.398673
0.000000
0.000000
0.000000
0.000000
0.000000
0.000000
0.339128
0.398756
0.484306
0.484212
0.484297
0.398673
0.000000
0.000000
0.000000
0.000000
0.000000
0.000000
0.000000
0.000000
0.000000
0.000000
0.000000
0.000000
0.000000
0.000000
0.000000
0.000000
0.000000
0.000000
0.000000
0.000000
0.000000
0.000000
0.000000
0.000000
0.000000
0.000000
0.000000
0.000000
0.000000
0.000000
0.338871
0.338783
0.338863
0.278934
0.237290
0.279012
0.000000
0.000000
0.000000
0.000000
0.000000
0.000000
0.000000
0.000000
0.000000
0.000000
0.000000
0.000000
0.000000
0.000000
0.000000
0.000000
0.000000
0.000000
0.000000
0.000000
0.000000
0.000000
0.000000
0.000000
0.000000
0.000000
0.000000
0.000000
0.000000
0.000000
0.000000
0.000000
0.000000
0.000000
0.000000
0.000000
0.338871
0.338783
0.338863
0.278934
0.237290
0.279012
0.338557
0.279326
0.237180
0.237106
0.237186
0.279243
0.000000
0.000000
0.000000
0.000000
0.000000
0.000000
1.412489
1.165368
0.989527
0.989465
0.989531
1.165299
0.692373
0.692287
0.692380
0.815311
0.988318
0.815408
0.989216
0.989152
0.989210
0.814417
0.692680
0.814473
1.413763
1.164023
0.989958
1.164023
1.413763
1.413763
0.692680
0.814473
0.989216
0.989152
0.989210
0.814417
1.412489
1.165368
0.989527
0.989465
0.989531
1.165299
0.000000
0.000000
0.000000
0.000000
0.000000
0.000000
0.000000
0.000000
0.000000
0.000000
0.000000
0.000000
0.000000
0.000000
0.000000
0.000000
0.000000
0.000000
0.000000
0.000000
0.000000
0.000000
0.000000
0.000000
0.000000
0.000000
0.000000
0.000000
0.000000
0.000000
0.000000
0.000000
0.000000
0.000000
0.000000
0.000000
0.691526
0.570542
0.484455
0.484363
0.484461
0.570440
0.338974
0.338888
0.338980
0.399113
0.483860
0.399208
0.484306
0.484212
0.484297
0.398673
0.339128
0.398756
1.413763
1.413763
1.413763
1.164023
0.989958
1.164023
1.413763
1.164023
0.989958
1.164023
1.413763
1.413763
0.989531
1.165299
1.412489
1.165368
0.989527
0.989465
0.692680
0.814473
0.989216
0.989152
0.989210
0.814417
1.413763
1.413763
1.413763
1.164023
0.989958
1.164023
0.989527
0.989465
0.989531
1.165299
1.412489
1.165368
0.692380
0.815311
0.988318
0.815408
0.692373
0.692287
1.412489
1.165368
0.989527
0.989465
0.989531
1.165299
0.692680
0.814473
0.989216
0.989152
0.989210
0.814417
0.081288
0.095580
0.116085
0.116033
0.116081
0.095534
0.165906
0.165842
0.165901
0.136544
0.116175
0.136601
0.116119
0.116068
0.116123
0.136695
0.165750
0.136753
0.338980
0.399113
0.483860
0.399208
0.338974
0.338888
0.691526
0.570542
0.484455
0.484363
0.484461
0.570440
0.339128
0.398756
0.484306
0.484212
0.484297
0.398673
0.692150
0.569813
0.484673
0.569891
0.692158
0.692069
0.339128
0.398756
0.484306
0.484212
0.484297
0.398673
0.691526
0.570542
0.484455
0.484363
0.484461
0.570440
1.412489
1.165368
0.989527
0.989465
0.989531
1.165299
0.692373
0.692287
0.692380
0.815311
0.988318
0.815408
0.989216
0.989152
0.989210
0.814417
0.692680
0.814473
0.000000
0.000000
0.000000
0.000000
0.000000
0.000000
0.000000
0.000000
0.000000
0.000000
0.000000
0.000000
0.000000
0.000000
0.000000
0.000000
0.000000
0.000000
0.692680
0.814473
0.989216
0.989152
0.989210
0.814417
1.413763
1.413763
1.413763
1.164023
0.989958
1.164023
0.989527
0.989465
0.989531
1.165299
1.412489
1.165368
0.692158
0.692069
0.692150
0.569813
0.484673
0.569891
0.692150
0.569813
0.484673
0.569891
0.692158
0.692069
0.484461
0.570440
0.691526
0.570542
0.484455
0.484363
0.000000
0.000000
0.000000
0.000000
0.000000
0.000000
0.000000
0.000000
0.000000
0.000000
0.000000
0.000000
0.000000
0.000000
0.000000
0.000000
0.000000
0.000000
0.692158
0.692069
0.692150
0.569813
0.484673
0.569891
0.692150
0.569813
0.484673
0.569891
0.692158
0.692069
0.484461
0.570440
0.691526
0.570542
0.484455
0.484363
0.000000
0.000000
0.000000
0.000000
0.000000
0.000000
0.000000
0.000000
0.000000
0.000000
0.000000
0.000000
0.000000
0.000000
0.000000
0.000000
0.000000
0.000000
0.000000
0.000000
0.000000
0.000000
0.000000
0.000000
0.000000
0.000000
0.000000
0.000000
0.000000
0.000000
0.000000
0.000000
0.000000
0.000000
0.000000
0.000000
0.000000
0.000000
0.000000
0.000000
0.000000
0.000000
0.000000
0.000000
0.000000
0.000000
0.000000
0.000000
0.000000
0.000000
0.000000
0.000000
0.000000
0.000000
0.000000
0.000000
0.000000
0.000000
0.000000
0.000000
0.000000
0.000000
0.000000
0.000000
0.000000
0.000000
0.000000
0.000000
0.000000
0.000000
0.000000
0.000000
0.000000
0.000000
0.000000
0.000000
0.000000
0.000000
0.000000
0.000000
0.000000
0.000000
0.000000
0.000000
0.000000
0.000000
0.000000
0.000000
0.000000
0.000000
0.338863
0.278934
0.237290
0.279012
0.338871
0.338783
0.166034
0.195226
0.237109
0.237033
0.237102
0.195158
0.338557
0.279326
0.237180
0.237106
0.237186
0.279243
0.000000
0.000000
0.000000
0.000000
0.000000
0.000000
0.000000
0.000000
0.000000
0.000000
0.000000
0.000000
0.000000
0.000000
0.000000
0.000000
0.000000
0.000000
0.000000
0.000000
0.000000
0.000000
0.000000
0.000000
0.000000
0.000000
0.000000
0.000000
0.000000
0.000000
0.000000
0.000000
0.000000
0.000000
0.000000
0.000000
0.000000
0.000000
0.000000
0.000000
0.000000
0.000000
0.000000
0.000000
0.000000
0.000000
0.000000
0.000000
0.000000
0.000000
0.000000
0.000000
0.000000
0.000000
0.000000
0.000000
0.000000
0.000000
0.000000
0.000000
0.000000
0.000000
0.000000
0.000000
0.000000
0.000000
0.000000
0.000000
0.000000
0.000000
0.000000
0.000000
0.000000
0.000000
0.000000
0.000000
0.000000
0.000000
0.000000
0.000000
0.000000
0.000000
0.000000
0.000000
0.000000
0.000000
0.000000
0.000000
0.000000
0.000000
0.000000
0.000000
0.000000
0.000000
0.000000
0.000000
0.000000
0.000000
0.000000
0.000000
0.000000
0.000000
0.000000
0.000000
0.000000
0.000000
0.000000
0.000000
0.338863
0.278934
0.237290
0.279012
0.338871
0.338783
0.166034
0.195226
0.237109
0.237033
0.237102
0.195158
0.338557
0.279326
0.237180
0.237106
0.237186
0.279243
0.165955
0.165892
0.165960
0.195374
0.236888
0.195445
0.165960
0.195374
0.236888
0.195445
0.165955
0.165892
0.237102
0.195158
0.166034
0.195226
0.237109
0.237033
0.000000
0.000000
0.000000
0.000000
0.000000
0.000000
0.000000
0.000000
0.000000
0.000000
0.000000
0.000000
0.000000
0.000000
0.000000
0.000000
0.000000
0.000000
 
