# vtk DataFile Version 3.0 
Date: 3/21/2016   Time: 13:54
ASCII 
DATASET UNSTRUCTURED_GRID 
 
POINTS 3200 float 
0.000000 0.000000 0.000000 
0.025000 0.000000 0.000000 
0.050000 0.000000 0.000000 
0.050000 0.010000 0.000000 
0.050000 0.020000 0.000000 
0.025000 0.020000 0.000000 
0.000000 0.020000 0.000000 
0.000000 0.010000 0.000000 
0.000000 0.020000 0.000000 
0.025000 0.020000 0.000000 
0.050000 0.020000 0.000000 
0.050000 0.030000 0.000000 
0.050000 0.040000 0.000000 
0.025000 0.040000 0.000000 
0.000000 0.040000 0.000000 
0.000000 0.030000 0.000000 
0.000000 0.040000 0.000000 
0.025000 0.040000 0.000000 
0.050000 0.040000 0.000000 
0.050000 0.050000 0.000000 
0.050000 0.060000 0.000000 
0.025000 0.060000 0.000000 
0.000000 0.060000 0.000000 
0.000000 0.050000 0.000000 
0.000000 0.060000 0.000000 
0.025000 0.060000 0.000000 
0.050000 0.060000 0.000000 
0.050000 0.070000 0.000000 
0.050000 0.080000 0.000000 
0.025000 0.080000 0.000000 
0.000000 0.080000 0.000000 
0.000000 0.070000 0.000000 
0.000000 0.080000 0.000000 
0.025000 0.080000 0.000000 
0.050000 0.080000 0.000000 
0.050000 0.090000 0.000000 
0.050000 0.100000 0.000000 
0.025000 0.100000 0.000000 
0.000000 0.100000 0.000000 
0.000000 0.090000 0.000000 
0.000000 0.100000 0.000000 
0.025000 0.100000 0.000000 
0.050000 0.100000 0.000000 
0.050000 0.110000 0.000000 
0.050000 0.120000 0.000000 
0.025000 0.120000 0.000000 
0.000000 0.120000 0.000000 
0.000000 0.110000 0.000000 
0.000000 0.120000 0.000000 
0.025000 0.120000 0.000000 
0.050000 0.120000 0.000000 
0.050000 0.130000 0.000000 
0.050000 0.140000 0.000000 
0.025000 0.140000 0.000000 
0.000000 0.140000 0.000000 
0.000000 0.130000 0.000000 
0.000000 0.140000 0.000000 
0.025000 0.140000 0.000000 
0.050000 0.140000 0.000000 
0.050000 0.150000 0.000000 
0.050000 0.160000 0.000000 
0.025000 0.160000 0.000000 
0.000000 0.160000 0.000000 
0.000000 0.150000 0.000000 
0.000000 0.160000 0.000000 
0.025000 0.160000 0.000000 
0.050000 0.160000 0.000000 
0.050000 0.170000 0.000000 
0.050000 0.180000 0.000000 
0.025000 0.180000 0.000000 
0.000000 0.180000 0.000000 
0.000000 0.170000 0.000000 
0.000000 0.180000 0.000000 
0.025000 0.180000 0.000000 
0.050000 0.180000 0.000000 
0.050000 0.190000 0.000000 
0.050000 0.200000 0.000000 
0.025000 0.200000 0.000000 
0.000000 0.200000 0.000000 
0.000000 0.190000 0.000000 
0.000000 0.200000 0.000000 
0.025000 0.200000 0.000000 
0.050000 0.200000 0.000000 
0.050000 0.240000 0.000000 
0.050000 0.280000 0.000000 
0.025000 0.280000 0.000000 
0.000000 0.280000 0.000000 
0.000000 0.240000 0.000000 
0.000000 0.280000 0.000000 
0.025000 0.280000 0.000000 
0.050000 0.280000 0.000000 
0.050000 0.320000 0.000000 
0.050000 0.360000 0.000000 
0.025000 0.360000 0.000000 
0.000000 0.360000 0.000000 
0.000000 0.320000 0.000000 
0.000000 0.360000 0.000000 
0.025000 0.360000 0.000000 
0.050000 0.360000 0.000000 
0.050000 0.400000 0.000000 
0.050000 0.440000 0.000000 
0.025000 0.440000 0.000000 
0.000000 0.440000 0.000000 
0.000000 0.400000 0.000000 
0.000000 0.440000 0.000000 
0.025000 0.440000 0.000000 
0.050000 0.440000 0.000000 
0.050000 0.480000 0.000000 
0.050000 0.520000 0.000000 
0.025000 0.520000 0.000000 
0.000000 0.520000 0.000000 
0.000000 0.480000 0.000000 
0.000000 0.520000 0.000000 
0.025000 0.520000 0.000000 
0.050000 0.520000 0.000000 
0.050000 0.560000 0.000000 
0.050000 0.600000 0.000000 
0.025000 0.600000 0.000000 
0.000000 0.600000 0.000000 
0.000000 0.560000 0.000000 
0.000000 0.600000 0.000000 
0.025000 0.600000 0.000000 
0.050000 0.600000 0.000000 
0.050000 0.640000 0.000000 
0.050000 0.680000 0.000000 
0.025000 0.680000 0.000000 
0.000000 0.680000 0.000000 
0.000000 0.640000 0.000000 
0.000000 0.680000 0.000000 
0.025000 0.680000 0.000000 
0.050000 0.680000 0.000000 
0.050000 0.720000 0.000000 
0.050000 0.760000 0.000000 
0.025000 0.760000 0.000000 
0.000000 0.760000 0.000000 
0.000000 0.720000 0.000000 
0.000000 0.760000 0.000000 
0.025000 0.760000 0.000000 
0.050000 0.760000 0.000000 
0.050000 0.800000 0.000000 
0.050000 0.840000 0.000000 
0.025000 0.840000 0.000000 
0.000000 0.840000 0.000000 
0.000000 0.800000 0.000000 
0.000000 0.840000 0.000000 
0.025000 0.840000 0.000000 
0.050000 0.840000 0.000000 
0.050000 0.880000 0.000000 
0.050000 0.920000 0.000000 
0.025000 0.920000 0.000000 
0.000000 0.920000 0.000000 
0.000000 0.880000 0.000000 
0.000000 0.920000 0.000000 
0.025000 0.920000 0.000000 
0.050000 0.920000 0.000000 
0.050000 0.960000 0.000000 
0.050000 1.000000 0.000000 
0.025000 1.000000 0.000000 
0.000000 1.000000 0.000000 
0.000000 0.960000 0.000000 
0.050000 0.000000 0.000000 
0.075000 0.000000 0.000000 
0.100000 0.000000 0.000000 
0.100000 0.010000 0.000000 
0.100000 0.020000 0.000000 
0.075000 0.020000 0.000000 
0.050000 0.020000 0.000000 
0.050000 0.010000 0.000000 
0.050000 0.020000 0.000000 
0.075000 0.020000 0.000000 
0.100000 0.020000 0.000000 
0.100000 0.030000 0.000000 
0.100000 0.040000 0.000000 
0.075000 0.040000 0.000000 
0.050000 0.040000 0.000000 
0.050000 0.030000 0.000000 
0.050000 0.040000 0.000000 
0.075000 0.040000 0.000000 
0.100000 0.040000 0.000000 
0.100000 0.050000 0.000000 
0.100000 0.060000 0.000000 
0.075000 0.060000 0.000000 
0.050000 0.060000 0.000000 
0.050000 0.050000 0.000000 
0.050000 0.060000 0.000000 
0.075000 0.060000 0.000000 
0.100000 0.060000 0.000000 
0.100000 0.070000 0.000000 
0.100000 0.080000 0.000000 
0.075000 0.080000 0.000000 
0.050000 0.080000 0.000000 
0.050000 0.070000 0.000000 
0.050000 0.080000 0.000000 
0.075000 0.080000 0.000000 
0.100000 0.080000 0.000000 
0.100000 0.090000 0.000000 
0.100000 0.100000 0.000000 
0.075000 0.100000 0.000000 
0.050000 0.100000 0.000000 
0.050000 0.090000 0.000000 
0.050000 0.100000 0.000000 
0.075000 0.100000 0.000000 
0.100000 0.100000 0.000000 
0.100000 0.110000 0.000000 
0.100000 0.120000 0.000000 
0.075000 0.120000 0.000000 
0.050000 0.120000 0.000000 
0.050000 0.110000 0.000000 
0.050000 0.120000 0.000000 
0.075000 0.120000 0.000000 
0.100000 0.120000 0.000000 
0.100000 0.130000 0.000000 
0.100000 0.140000 0.000000 
0.075000 0.140000 0.000000 
0.050000 0.140000 0.000000 
0.050000 0.130000 0.000000 
0.050000 0.140000 0.000000 
0.075000 0.140000 0.000000 
0.100000 0.140000 0.000000 
0.100000 0.150000 0.000000 
0.100000 0.160000 0.000000 
0.075000 0.160000 0.000000 
0.050000 0.160000 0.000000 
0.050000 0.150000 0.000000 
0.050000 0.160000 0.000000 
0.075000 0.160000 0.000000 
0.100000 0.160000 0.000000 
0.100000 0.170000 0.000000 
0.100000 0.180000 0.000000 
0.075000 0.180000 0.000000 
0.050000 0.180000 0.000000 
0.050000 0.170000 0.000000 
0.050000 0.180000 0.000000 
0.075000 0.180000 0.000000 
0.100000 0.180000 0.000000 
0.100000 0.190000 0.000000 
0.100000 0.200000 0.000000 
0.075000 0.200000 0.000000 
0.050000 0.200000 0.000000 
0.050000 0.190000 0.000000 
0.050000 0.200000 0.000000 
0.075000 0.200000 0.000000 
0.100000 0.200000 0.000000 
0.100000 0.240000 0.000000 
0.100000 0.280000 0.000000 
0.075000 0.280000 0.000000 
0.050000 0.280000 0.000000 
0.050000 0.240000 0.000000 
0.050000 0.280000 0.000000 
0.075000 0.280000 0.000000 
0.100000 0.280000 0.000000 
0.100000 0.320000 0.000000 
0.100000 0.360000 0.000000 
0.075000 0.360000 0.000000 
0.050000 0.360000 0.000000 
0.050000 0.320000 0.000000 
0.050000 0.360000 0.000000 
0.075000 0.360000 0.000000 
0.100000 0.360000 0.000000 
0.100000 0.400000 0.000000 
0.100000 0.440000 0.000000 
0.075000 0.440000 0.000000 
0.050000 0.440000 0.000000 
0.050000 0.400000 0.000000 
0.050000 0.440000 0.000000 
0.075000 0.440000 0.000000 
0.100000 0.440000 0.000000 
0.100000 0.480000 0.000000 
0.100000 0.520000 0.000000 
0.075000 0.520000 0.000000 
0.050000 0.520000 0.000000 
0.050000 0.480000 0.000000 
0.050000 0.520000 0.000000 
0.075000 0.520000 0.000000 
0.100000 0.520000 0.000000 
0.100000 0.560000 0.000000 
0.100000 0.600000 0.000000 
0.075000 0.600000 0.000000 
0.050000 0.600000 0.000000 
0.050000 0.560000 0.000000 
0.050000 0.600000 0.000000 
0.075000 0.600000 0.000000 
0.100000 0.600000 0.000000 
0.100000 0.640000 0.000000 
0.100000 0.680000 0.000000 
0.075000 0.680000 0.000000 
0.050000 0.680000 0.000000 
0.050000 0.640000 0.000000 
0.050000 0.680000 0.000000 
0.075000 0.680000 0.000000 
0.100000 0.680000 0.000000 
0.100000 0.720000 0.000000 
0.100000 0.760000 0.000000 
0.075000 0.760000 0.000000 
0.050000 0.760000 0.000000 
0.050000 0.720000 0.000000 
0.050000 0.760000 0.000000 
0.075000 0.760000 0.000000 
0.100000 0.760000 0.000000 
0.100000 0.800000 0.000000 
0.100000 0.840000 0.000000 
0.075000 0.840000 0.000000 
0.050000 0.840000 0.000000 
0.050000 0.800000 0.000000 
0.050000 0.840000 0.000000 
0.075000 0.840000 0.000000 
0.100000 0.840000 0.000000 
0.100000 0.880000 0.000000 
0.100000 0.920000 0.000000 
0.075000 0.920000 0.000000 
0.050000 0.920000 0.000000 
0.050000 0.880000 0.000000 
0.050000 0.920000 0.000000 
0.075000 0.920000 0.000000 
0.100000 0.920000 0.000000 
0.100000 0.960000 0.000000 
0.100000 1.000000 0.000000 
0.075000 1.000000 0.000000 
0.050000 1.000000 0.000000 
0.050000 0.960000 0.000000 
0.100000 0.000000 0.000000 
0.125000 0.000000 0.000000 
0.150000 0.000000 0.000000 
0.150000 0.010000 0.000000 
0.150000 0.020000 0.000000 
0.125000 0.020000 0.000000 
0.100000 0.020000 0.000000 
0.100000 0.010000 0.000000 
0.100000 0.020000 0.000000 
0.125000 0.020000 0.000000 
0.150000 0.020000 0.000000 
0.150000 0.030000 0.000000 
0.150000 0.040000 0.000000 
0.125000 0.040000 0.000000 
0.100000 0.040000 0.000000 
0.100000 0.030000 0.000000 
0.100000 0.040000 0.000000 
0.125000 0.040000 0.000000 
0.150000 0.040000 0.000000 
0.150000 0.050000 0.000000 
0.150000 0.060000 0.000000 
0.125000 0.060000 0.000000 
0.100000 0.060000 0.000000 
0.100000 0.050000 0.000000 
0.100000 0.060000 0.000000 
0.125000 0.060000 0.000000 
0.150000 0.060000 0.000000 
0.150000 0.070000 0.000000 
0.150000 0.080000 0.000000 
0.125000 0.080000 0.000000 
0.100000 0.080000 0.000000 
0.100000 0.070000 0.000000 
0.100000 0.080000 0.000000 
[...]
CELL_DATA 400
FIELD FieldData 1
material 1 400 int
1
1
1
1
1
1
1
1
1
1
1
1
1
1
1
1
1
1
1
1
1
1
1
1
1
1
1
1
1
1
1
1
1
1
1
1
1
1
1
1
1
1
1
1
1
1
1
1
1
1
1
1
1
1
1
1
1
1
1
1
1
1
1
1
1
1
1
1
1
1
1
1
1
1
1
1
1
1
1
1
1
1
1
1
1
1
1
1
1
1
1
1
1
1
1
1
1
1
1
1
1
1
1
1
1
1
1
1
1
1
1
1
1
1
1
1
1
1
1
1
1
1
1
1
1
1
1
1
1
1
1
1
1
1
1
1
1
1
1
1
1
1
1
1
1
1
1
1
1
1
1
1
1
1
1
1
1
1
1
1
1
1
1
1
1
1
1
1
1
1
1
1
1
1
1
1
1
1
1
1
1
1
1
1
1
1
1
1
1
1
1
1
1
1
1
1
1
1
1
1
1
1
1
1
1
1
1
1
1
1
1
1
1
1
1
1
1
1
1
1
1
1
1
1
1
1
1
1
1
1
1
1
1
1
1
1
1
1
1
1
1
1
1
1
1
1
1
1
1
1
1
1
1
1
1
1
1
1
1
1
1
1
1
1
1
1
1
1
1
1
1
1
1
1
1
1
1
1
1
1
1
1
1
1
1
1
1
1
1
1
1
1
1
1
1
1
1
1
1
1
1
1
1
1
1
1
1
1
1
1
1
1
1
1
1
1
1
1
1
1
1
1
1
1
1
1
1
1
1
1
1
1
1
1
1
1
1
1
1
1
1
1
1
1
1
1
1
1
1
1
1
1
1
1
1
1
1
1
1
1
1
1
1
1
1
1
1
1
1
1
1
1
1
1
1
1
1
1
1
1
1
1
1
1
1
1
1
1
1
1
1
1
1
1
1
1
1
1
1
1
POINT_DATA 3200 SCALARS flux double 
LOOKUP_TABLE   default 
-3.64153152e-14
-9.41469125e-14
-3.73034936e-14
-7.01660952e-14
-1.99840144e-13
-9.85878046e-14
-2.93098879e-14
-8.70414851e-14
-1.42108547e-14
-7.28306304e-14
-1.76747506e-13
-1.23456800e-13
1.40332190e-13
1.70530257e-13
1.12798659e-13
1.35891298e-13
1.06581410e-13
1.42996726e-13
9.76996262e-14
2.14050999e-13
8.88178420e-14
-3.19744231e-14
-5.15143483e-14
5.15143483e-14
-3.99680289e-14
-2.66453526e-14
1.01252340e-13
-3.99680289e-14
-1.32338585e-13
-5.32907052e-14
-2.39808173e-14
-3.10862447e-14
-7.99360578e-15
-7.28306304e-14
-1.41220369e-13
-9.41469125e-14
1.82964754e-13
-5.32907052e-15
-3.10862447e-14
-7.81597009e-14
-6.92779167e-14
3.19744231e-14
1.93622895e-13
2.84217094e-13
-1.08357767e-13
1.52766688e-13
1.42996726e-13
1.66977543e-13
1.88293825e-13
1.21680443e-13
-1.01252340e-13
-3.34843264e-13
-1.47437618e-13
-2.58459920e-13
-1.36779477e-13
-6.21724894e-15
-1.58095759e-13
-2.37143638e-13
-1.58095759e-13
-4.97379915e-14
7.99360578e-15
-4.26325641e-14
-1.00364161e-13
-1.76747506e-13
-1.07469589e-13
-4.26325641e-14
5.32907052e-15
1.20792265e-13
1.06581410e-13
9.14823772e-14
5.24025268e-14
-1.77635684e-15
6.92779167e-14
8.17124146e-14
1.12798659e-13
1.14575016e-13
1.24344979e-13
1.77635684e-14
6.92779167e-14
1.11910481e-13
3.37507799e-14
1.16351373e-13
1.19015908e-13
-1.24344979e-13
-6.03961325e-14
-6.39488462e-14
-2.66453526e-14
4.79616347e-14
-3.73034936e-14
-1.01252340e-13
-4.44089210e-14
8.34887715e-14
2.66453526e-14
7.81597009e-14
2.66453526e-14
-2.66453526e-14
3.37507799e-14
5.68434189e-14
2.66453526e-14
1.06581410e-14
-1.06581410e-14
-4.61852778e-14
-7.10542736e-15
1.06581410e-14
-1.42108547e-14
-2.66453526e-14
-1.59872116e-14
-2.30926389e-14
-1.77635684e-14
-5.32907052e-15
-1.95399252e-14
3.55271368e-15
-8.88178420e-15
-1.95399252e-14
-1.77635684e-14
-3.55271368e-15
1.42108547e-14
1.24344979e-14
1.95399252e-14
0.00000000e+00
8.88178420e-15
2.13162821e-14
1.06581410e-14
3.19744231e-14
0.00000000e+00
0.00000000e+00
-1.42108547e-14
0.00000000e+00
-1.06581410e-14
-5.32907052e-15
0.00000000e+00
-3.55271368e-15
1.06581410e-14
5.32907052e-15
8.88178420e-15
3.19744231e-14
8.88178420e-15
-1.77635684e-14
0.00000000e+00
-2.13162821e-14
5.32907052e-15
-3.55271368e-15
-8.88178420e-15
-2.13162821e-14
-1.77635684e-15
-1.24344979e-14
1.77635684e-14
0.00000000e+00
-3.19744231e-14
-1.59872116e-14
-1.42108547e-14
3.73034936e-14
-2.30926389e-14
-4.44089210e-14
-6.92779167e-14
-7.63833441e-14
8.52651283e-14
7.28306304e-14
4.61852778e-14
-1.15463195e-13
-4.17443857e-14
9.50350909e-14
-7.99360578e-14
1.15463195e-13
1.35003120e-13
-1.66089364e-13
-1.98951966e-13
-3.19744231e-14
-1.50990331e-13
-2.61124455e-13
1.17239551e-13
-2.94875235e-13
-3.43725048e-13
-5.24025268e-14
1.63424829e-13
-1.88293825e-13
1.04805054e-13
1.24344979e-14
-2.70006240e-13
1.52766688e-13
1.28785871e-13
2.22044605e-13
8.43769499e-14
1.91846539e-13
1.01252340e-13
2.64677169e-13
1.55431223e-13
-1.15463195e-14
1.23456800e-13
-2.04281037e-13
-1.31450406e-13
-3.99680289e-14
-1.43884904e-13
-2.63788991e-13
1.33226763e-13
4.71622741e-13
3.73034936e-14
3.13526982e-13
1.67865721e-13
-5.86197757e-14
1.94511074e-13
3.81916720e-13
5.59552404e-14
-5.11590770e-13
-3.84581256e-13
-2.85105273e-13
-9.32587341e-14
2.27373675e-13
-1.07469589e-13
-3.05533376e-13
-3.99680289e-13
-1.77635684e-13
7.01660952e-14
-2.05169215e-13
-1.54543045e-13
-2.81552559e-13
-1.56319402e-13
-2.31814568e-13
9.05941988e-14
3.01092484e-13
2.45137244e-13
1.50102153e-13
1.95399252e-14
-1.05693232e-13
1.42108547e-14
1.75859327e-13
2.54019028e-13
1.84741111e-13
3.55271368e-14
2.22932783e-13
1.27009514e-13
1.13686838e-13
1.17239551e-13
2.47801779e-13
3.37507799e-14
-6.57252031e-14
-1.13686838e-13
5.68434189e-14
1.11022302e-13
1.47437618e-13
1.24344979e-13
-6.92779167e-14
-1.15463195e-13
1.59872116e-14
4.26325641e-14
-1.77635684e-15
-2.66453526e-14
-1.66977543e-13
-2.48689958e-14
2.48689958e-14
3.55271368e-14
-1.42108547e-14
-1.06581410e-14
-1.06581410e-14
3.37507799e-14
4.61852778e-14
2.30926389e-14
0.00000000e+00
-1.77635684e-14
1.77635684e-14
1.77635684e-14
-5.32907052e-15
-1.42108547e-14
2.30926389e-14
-1.24344979e-14
-2.30926389e-14
1.42108547e-14
-3.55271368e-15
-4.44089210e-14
-3.73034936e-14
-1.06581410e-14
-3.01980663e-14
-1.77635684e-14
-1.06581410e-14
-4.26325641e-14
-8.88178420e-15
3.19744231e-14
1.24344979e-14
1.42108547e-14
7.10542736e-15
1.24344979e-14
1.24344979e-14
1.77635684e-14
3.37507799e-14
8.88178420e-15
0.00000000e+00
0.00000000e+00
3.37507799e-14
0.00000000e+00
0.00000000e+00
1.24344979e-14
0.00000000e+00
1.77635684e-15
1.06581410e-14
3.55271368e-15
-8.88178420e-15
0.00000000e+00
-1.42108547e-14
-1.06581410e-14
0.00000000e+00
5.32907052e-15
1.24344979e-14
-3.55271368e-15
-1.77635684e-14
1.42108547e-14
1.06581410e-14
2.13162821e-14
0.00000000e+00
-5.86197757e-14
-3.90798505e-14
-3.73034936e-14
0.00000000e+00
-7.46069873e-14
-9.59232693e-14
-1.24344979e-13
1.95399252e-14
1.10134124e-13
1.06581410e-13
8.34887715e-14
-6.39488462e-14
-3.81916720e-14
-1.58983937e-13
9.14823772e-14
-1.62536651e-13
-1.85629290e-13
1.25233157e-13
1.57207580e-13
-2.66453526e-14
4.35207426e-14
3.33066907e-13
-2.45137244e-13
4.78728168e-13
2.35367281e-13
0.00000000e+00
-3.81916720e-13
-1.14575016e-13
-2.77111667e-13
0.00000000e+00
6.21724894e-14
0.00000000e+00
-1.10134124e-13
3.01980663e-13
8.79296636e-14
1.90958360e-13
1.51878510e-13
-2.12274642e-13
-1.47437618e-13
0.00000000e+00
0.00000000e+00
5.39124301e-13
1.66977543e-13
-5.15143483e-14
1.59872116e-13
7.88702437e-13
0.00000000e+00
-3.09086090e-13
-4.14779322e-13
-5.69322367e-13
8.88178420e-16
4.58300065e-13
4.88498131e-14
-7.14095449e-13
-3.73923115e-13
-9.41469125e-14
1.38555833e-13
-1.66089364e-13
-3.48165941e-13
-5.61328761e-13
-4.00568467e-13
-9.05941988e-14
9.76996262e-14
1.59872116e-13
-4.08562073e-14
3.80140364e-13
7.28306304e-14
-8.70414851e-14
9.23705556e-14
3.92574862e-13
-4.08562073e-14
-1.26121336e-13
-8.17124146e-14
2.84217094e-14
2.11386464e-13
2.89546165e-13
2.32702746e-13
1.77635684e-15
-6.39488462e-14
-3.90798505e-14
1.95399252e-14
-1.36779477e-13
3.19744231e-14
1.26121336e-13
3.55271368e-14
-1.50990331e-13
2.66453526e-14
6.39488462e-14
7.99360578e-14
-6.39488462e-14
-7.63833441e-14
-6.75015599e-14
-1.06581410e-13
-1.77635684e-15
6.57252031e-14
4.44089210e-14
-2.30926389e-14
2.66453526e-14
1.59872116e-14
4.61852778e-14
2.66453526e-14
5.32907052e-15
-1.59872116e-14
-3.01980663e-14
-2.66453526e-14
-5.32907052e-14
-1.24344979e-14
-5.32907052e-15
-1.42108547e-14
-3.73034936e-14
-2.66453526e-14
-1.77635684e-14
2.13162821e-14
1.06581410e-14
1.77635684e-14
8.88178420e-15
7.10542736e-15
1.95399252e-14
1.42108547e-14
6.92779167e-14
1.42108547e-14
-3.37507799e-14
-4.79616347e-14
1.42108547e-14
-3.37507799e-14
-3.73034936e-14
1.24344979e-14
-9.41469125e-14
-1.06581410e-14
3.73034936e-14
3.73034936e-14
-2.30926389e-14
1.95399252e-14
3.19744231e-14
-8.88178420e-15
9.59232693e-14
-7.10542736e-15
-1.06581410e-14
7.10542736e-15
3.37507799e-14
7.10542736e-15
8.88178420e-15
7.10542736e-15
-5.86197757e-14
0.00000000e+00
0.00000000e+00
0.00000000e+00
0.00000000e+00
-1.59872116e-14
0.00000000e+00
0.00000000e+00
0.00000000e+00
0.00000000e+00
0.00000000e+00
0.00000000e+00
0.00000000e+00
2.30926389e-14
2.66453526e-14
4.08562073e-14
0.00000000e+00
0.00000000e+00
-7.28306304e-14
-6.03961325e-14
0.00000000e+00
-1.27897692e-13
0.00000000e+00
0.00000000e+00
0.00000000e+00
0.00000000e+00
1.08357767e-13
9.59232693e-14
3.19744231e-14
2.48689958e-14
4.26325641e-14
-8.26005930e-14
-1.10134124e-13
-7.19424520e-14
7.46069873e-14
-1.79412041e-13
4.44089210e-15
-8.34887715e-14
-1.13686838e-13
2.39808173e-14
1.24344979e-13
-9.68114477e-14
-1.21680443e-13
5.49782442e-13
-1.23456800e-13
2.64677169e-13
8.65973959e-13
0.00000000e+00
0.00000000e+00
3.41060513e-13
0.00000000e+00
-1.50990331e-13
0.00000000e+00
-2.07833750e-13
-5.82645043e-13
3.37507799e-13
-4.47641924e-13
-9.23705556e-13
0.00000000e+00
3.53495011e-13
0.00000000e+00
5.31130695e-13
0.00000000e+00
-7.19424520e-13
-6.39488462e-14
2.98427949e-13
0.00000000e+00
-2.97539771e-13
-2.57571742e-13
-3.39284156e-13
0.00000000e+00
2.23820962e-13
0.00000000e+00
0.00000000e+00
-1.33226763e-13
2.66453526e-14
-1.22568622e-13
3.37507799e-14
-1.49213975e-13
0.00000000e+00
1.43884904e-13
1.15463195e-13
1.42108547e-14
-1.77635684e-15
2.30926389e-14
-7.10542736e-15
2.13162821e-14
1.20792265e-13
1.04805054e-13
4.61852778e-14
1.33226763e-13
-1.95399252e-14
-2.48689958e-14
-2.48689958e-14
1.42108547e-13
3.55271368e-14
1.24344979e-14
0.00000000e+00
7.81597009e-14
2.66453526e-14
1.59872116e-14
3.19744231e-14
7.46069873e-14
1.77635684e-15
-2.48689958e-14
-1.59872116e-14
0.00000000e+00
5.68434189e-14
4.08562073e-14
6.75015599e-14
-3.01980663e-14
-5.32907052e-15
-3.55271368e-15
1.77635684e-15
-2.66453526e-14
-5.32907052e-15
5.32907052e-15
-1.24344979e-14
-1.24344979e-14
-5.32907052e-15
3.01980663e-14
1.77635684e-14
-1.77635684e-15
-2.66453526e-14
-1.95399252e-14
-2.13162821e-14
-5.32907052e-15
1.95399252e-14
-3.55271368e-15
-1.06581410e-14
0.00000000e+00
2.84217094e-14
-1.06581410e-14
1.95399252e-14
2.13162821e-14
-1.06581410e-14
1.24344979e-14
0.00000000e+00
4.44089210e-14
1.42108547e-14
5.68434189e-14
7.10542736e-15
4.61852778e-14
0.00000000e+00
5.32907052e-15
-6.03961325e-14
0.00000000e+00
-1.24344979e-14
0.00000000e+00
-1.42108547e-14
0.00000000e+00
-9.23705556e-14
0.00000000e+00
6.39488462e-14
5.50670620e-14
-3.55271368e-15
1.04805054e-13
5.32907052e-15
1.06581410e-14
9.59232693e-14
-1.49213975e-13
-2.84217094e-14
-5.32907052e-15
-2.66453526e-14
-6.75015599e-14
-3.73034936e-14
-4.79616347e-14
0.00000000e+00
8.88178420e-14
0.00000000e+00
2.48689958e-14
0.00000000e+00
0.00000000e+00
5.32907052e-14
4.08562073e-14
0.00000000e+00
0.00000000e+00
0.00000000e+00
0.00000000e+00
0.00000000e+00
0.00000000e+00
0.00000000e+00
0.00000000e+00
0.00000000e+00
0.00000000e+00
0.00000000e+00
0.00000000e+00
0.00000000e+00
0.00000000e+00
-5.59552404e-14
3.66817687e-13
7.10542736e-15
7.10542736e-14
5.38236122e-13
0.00000000e+00
-3.42836870e-13
-3.55271368e-14
-1.35891298e-13
0.00000000e+00
8.18900503e-13
7.49622586e-13
-9.30810984e-13
0.00000000e+00
0.00000000e+00
-5.76427794e-13
0.00000000e+00
0.00000000e+00
0.00000000e+00
0.00000000e+00
0.00000000e+00
0.00000000e+00
-5.21360732e-13
0.00000000e+00
9.87654403e-13
0.00000000e+00
3.30402372e-13
0.00000000e+00
0.00000000e+00
0.00000000e+00
-6.21724894e-13
0.00000000e+00
-6.80344669e-13
0.00000000e+00
0.00000000e+00
0.00000000e+00
1.59872116e-14
0.00000000e+00
1.74082970e-13
1.04805054e-13
1.75859327e-13
0.00000000e+00
3.90798505e-14
0.00000000e+00
-6.92779167e-14
0.00000000e+00
0.00000000e+00
0.00000000e+00
0.00000000e+00
0.00000000e+00
-8.17124146e-14
-8.34887715e-14
-4.79616347e-14
0.00000000e+00
6.57252031e-14
6.92779167e-14
7.28306304e-14
0.00000000e+00
-3.73034936e-14
-2.48689958e-14
-5.32907052e-15
0.00000000e+00
4.44089210e-14
5.86197757e-14
3.19744231e-14
0.00000000e+00
-1.42108547e-14
8.88178420e-15
1.06581410e-14
0.00000000e+00
2.84217094e-14
5.32907052e-15
3.37507799e-14
0.00000000e+00
2.30926389e-14
2.13162821e-14
-8.88178420e-15
0.00000000e+00
3.55271368e-15
8.88178420e-15
1.77635684e-15
0.00000000e+00
-1.77635684e-15
-1.42108547e-14
-3.19744231e-14
0.00000000e+00
-3.55271368e-15
1.24344979e-14
-1.06581410e-14
0.00000000e+00
-3.73034936e-14
-3.01980663e-14
3.37507799e-14
0.00000000e+00
1.95399252e-14
-3.55271368e-15
1.24344979e-14
0.00000000e+00
3.90798505e-14
3.90798505e-14
8.88178420e-15
0.00000000e+00
1.77635684e-15
-1.42108547e-14
-1.77635684e-14
0.00000000e+00
-1.59872116e-14
3.90798505e-14
-3.55271368e-15
0.00000000e+00
0.00000000e+00
2.13162821e-14
3.55271368e-14
0.00000000e+00
-5.32907052e-15
-1.06581410e-14
0.00000000e+00
0.00000000e+00
-3.73034936e-14
0.00000000e+00
-7.10542736e-14
0.00000000e+00
0.00000000e+00
5.68434189e-14
0.00000000e+00
0.00000000e+00
5.50670620e-14
0.00000000e+00
1.06581410e-13
0.00000000e+00
0.00000000e+00
0.00000000e+00
1.31450406e-13
0.00000000e+00
-2.84217094e-14
0.00000000e+00
-4.97379915e-14
0.00000000e+00
9.59232693e-14
0.00000000e+00
0.00000000e+00
0.00000000e+00
0.00000000e+00
0.00000000e+00
0.00000000e+00
0.00000000e+00
0.00000000e+00
0.00000000e+00
0.00000000e+00
0.00000000e+00
0.00000000e+00
0.00000000e+00
0.00000000e+00
0.00000000e+00
0.00000000e+00
0.00000000e+00
0.00000000e+00
2.13162821e-14
0.00000000e+00
0.00000000e+00
1.93622895e-13
-2.16715534e-13
-1.22568622e-13
2.04281037e-13
1.63424829e-13
0.00000000e+00
-9.59232693e-14
-9.41469125e-14
0.00000000e+00
0.00000000e+00
-2.07833750e-13
0.00000000e+00
0.00000000e+00
0.00000000e+00
0.00000000e+00
0.00000000e+00
0.00000000e+00
0.00000000e+00
0.00000000e+00
0.00000000e+00
0.00000000e+00
0.00000000e+00
0.00000000e+00
0.00000000e+00
0.00000000e+00
0.00000000e+00
0.00000000e+00
0.00000000e+00
0.00000000e+00
0.00000000e+00
-6.27053964e-13
0.00000000e+00
0.00000000e+00
0.00000000e+00
0.00000000e+00
0.00000000e+00
9.76996262e-14
0.00000000e+00
6.03961325e-14
-5.32907052e-14
-5.32907052e-15
0.00000000e+00
3.55271368e-14
1.20792265e-13
5.32907052e-14
0.00000000e+00
-8.88178420e-14
-9.76996262e-14
-9.76996262e-14
0.00000000e+00
4.79616347e-14
3.01980663e-14
1.95399252e-14
0.00000000e+00
-3.55271368e-14
-4.44089210e-14
-3.55271368e-14
0.00000000e+00
2.48689958e-14
1.59872116e-14
-2.48689958e-14
0.00000000e+00
-7.10542736e-15
-1.95399252e-14
-1.95399252e-14
0.00000000e+00
-3.19744231e-14
-5.68434189e-14
-2.30926389e-14
0.00000000e+00
1.95399252e-14
1.95399252e-14
3.01980663e-14
0.00000000e+00
3.55271368e-15
1.06581410e-14
-1.06581410e-14
0.00000000e+00
-1.59872116e-14
-3.55271368e-15
-1.42108547e-14
0.00000000e+00
-7.10542736e-15
-8.88178420e-15
1.77635684e-14
0.00000000e+00
-1.42108547e-14
-7.10542736e-15
-3.73034936e-14
0.00000000e+00
-3.55271368e-15
-5.32907052e-15
5.86197757e-14
0.00000000e+00
2.13162821e-14
-1.24344979e-14
3.37507799e-14
0.00000000e+00
7.28306304e-14
4.79616347e-14
-8.88178420e-15
0.00000000e+00
3.55271368e-15
3.55271368e-14
-1.59872116e-14
0.00000000e+00
-8.88178420e-15
-1.42108547e-14
-9.23705556e-14
0.00000000e+00
0.00000000e+00
3.37507799e-14
0.00000000e+00
0.00000000e+00
-1.20792265e-13
-3.37507799e-14
7.63833441e-14
0.00000000e+00
0.00000000e+00
1.06581410e-14
0.00000000e+00
0.00000000e+00
7.10542736e-14
1.42108547e-14
5.86197757e-14
0.00000000e+00
0.00000000e+00
0.00000000e+00
0.00000000e+00
0.00000000e+00
6.21724894e-14
0.00000000e+00
0.00000000e+00
0.00000000e+00
6.39488462e-14
0.00000000e+00
0.00000000e+00
0.00000000e+00
0.00000000e+00
0.00000000e+00
-1.77635684e-14
0.00000000e+00
0.00000000e+00
0.00000000e+00
0.00000000e+00
0.00000000e+00
0.00000000e+00
0.00000000e+00
0.00000000e+00
0.00000000e+00
0.00000000e+00
0.00000000e+00
0.00000000e+00
0.00000000e+00
0.00000000e+00
0.00000000e+00
0.00000000e+00
0.00000000e+00
0.00000000e+00
0.00000000e+00
-6.75015599e-14
7.28306304e-14
2.61124455e-13
0.00000000e+00
3.99680289e-13
0.00000000e+00
-3.71258579e-13
5.50670620e-13
-6.28830321e-13
0.00000000e+00
2.43360887e-13
5.04485342e-13
-9.05941988e-13
0.00000000e+00
0.00000000e+00
8.97060204e-13
0.00000000e+00
0.00000000e+00
0.00000000e+00
0.00000000e+00
0.00000000e+00
0.00000000e+00
0.00000000e+00
0.00000000e+00
0.00000000e+00
0.00000000e+00
0.00000000e+00
0.00000000e+00
0.00000000e+00
0.00000000e+00
0.00000000e+00
0.00000000e+00
0.00000000e+00
0.00000000e+00
0.00000000e+00
5.15143483e-14
0.00000000e+00
0.00000000e+00
5.32907052e-14
0.00000000e+00
-4.97379915e-14
0.00000000e+00
9.41469125e-14
-2.61124455e-13
1.77635684e-14
0.00000000e+00
3.90798505e-14
1.31450406e-13
1.24344979e-14
0.00000000e+00
2.84217094e-14
-8.88178420e-15
-1.42108547e-14
0.00000000e+00
2.66453526e-14
7.10542736e-15
4.08562073e-14
0.00000000e+00
1.42108547e-14
2.66453526e-14
-3.37507799e-14
0.00000000e+00
-4.26325641e-14
-1.42108547e-14
-5.50670620e-14
0.00000000e+00
-7.99360578e-14
-6.03961325e-14
1.15463195e-13
0.00000000e+00
-5.32907052e-15
0.00000000e+00
2.13162821e-14
0.00000000e+00
1.49213975e-13
1.38555833e-13
-1.17239551e-13
0.00000000e+00
-1.24344979e-14
-5.68434189e-14
-2.84217094e-14
0.00000000e+00
-1.40332190e-13
-1.56319402e-13
-2.13162821e-13
0.00000000e+00
3.19744231e-14
-1.77635684e-15
7.10542736e-15
0.00000000e+00
-2.61124455e-13
-2.55795385e-13
-1.10134124e-13
0.00000000e+00
6.92779167e-14
4.08562073e-14
1.03028697e-13
0.00000000e+00
-6.57252031e-14
0.00000000e+00
0.00000000e+00
0.00000000e+00
-1.95399252e-14
2.66453526e-14
1.95399252e-14
0.00000000e+00
0.00000000e+00
0.00000000e+00
0.00000000e+00
0.00000000e+00
-6.92779167e-14
-1.59872116e-13
-1.29674049e-13
0.00000000e+00
0.00000000e+00
0.00000000e+00
0.00000000e+00
0.00000000e+00
7.10542736e-14
1.43884904e-13
4.44089210e-14
0.00000000e+00
0.00000000e+00
0.00000000e+00
0.00000000e+00
0.00000000e+00
0.00000000e+00
7.10542736e-15
0.00000000e+00
0.00000000e+00
0.00000000e+00
0.00000000e+00
0.00000000e+00
0.00000000e+00
0.00000000e+00
-1.20792265e-13
0.00000000e+00
0.00000000e+00
0.00000000e+00
0.00000000e+00
0.00000000e+00
0.00000000e+00
0.00000000e+00
0.00000000e+00
0.00000000e+00
0.00000000e+00
0.00000000e+00
0.00000000e+00
0.00000000e+00
0.00000000e+00
0.00000000e+00
0.00000000e+00
0.00000000e+00
0.00000000e+00
0.00000000e+00
0.00000000e+00
-3.23296945e-13
0.00000000e+00
0.00000000e+00
0.00000000e+00
5.86197757e-14
4.84945417e-13
3.85469434e-13
0.00000000e+00
0.00000000e+00
0.00000000e+00
2.87769808e-13
0.00000000e+00
1.91846539e-13
0.00000000e+00
-5.68434189e-13
5.71986902e-13
-5.52446977e-13
0.00000000e+00
0.00000000e+00
0.00000000e+00
2.50466314e-13
0.00000000e+00
0.00000000e+00
0.00000000e+00
0.00000000e+00
0.00000000e+00
0.00000000e+00
0.00000000e+00
0.00000000e+00
0.00000000e+00
-3.57047725e-13
4.79616347e-13
-4.08562073e-13
0.00000000e+00
0.00000000e+00
0.00000000e+00
0.00000000e+00
0.00000000e+00
0.00000000e+00
0.00000000e+00
0.00000000e+00
0.00000000e+00
-3.48165941e-13
0.00000000e+00
-1.33226763e-13
0.00000000e+00
-2.73558953e-13
0.00000000e+00
-3.37507799e-14
0.00000000e+00
-6.39488462e-14
0.00000000e+00
-5.86197757e-14
0.00000000e+00
0.00000000e+00
0.00000000e+00
0.00000000e+00
0.00000000e+00
0.00000000e+00
0.00000000e+00
1.13686838e-13
0.00000000e+00
0.00000000e+00
-1.61648472e-13
2.57571742e-13
0.00000000e+00
-7.46069873e-14
-1.01252340e-13
-1.86517468e-13
0.00000000e+00
2.57571742e-13
1.90070182e-13
-2.68229883e-13
0.00000000e+00
1.26121336e-13
2.23820962e-13
1.82964754e-13
0.00000000e+00
-2.48689958e-13
-3.26849658e-13
0.00000000e+00
0.00000000e+00
-1.59872116e-13
-1.36779477e-13
-2.00728323e-13
0.00000000e+00
0.00000000e+00
0.00000000e+00
2.61124455e-13
0.00000000e+00
-2.20268248e-13
-1.90070182e-13
-1.79412041e-13
0.00000000e+00
2.75335310e-13
4.54747351e-13
3.33955086e-13
0.00000000e+00
0.00000000e+00
-7.63833441e-14
0.00000000e+00
0.00000000e+00
3.07309733e-13
0.00000000e+00
0.00000000e+00
0.00000000e+00
0.00000000e+00
0.00000000e+00
0.00000000e+00
0.00000000e+00
-4.49418280e-13
-2.54019028e-13
5.32907052e-14
0.00000000e+00
0.00000000e+00
0.00000000e+00
0.00000000e+00
0.00000000e+00
1.77635684e-13
-1.27897692e-13
0.00000000e+00
0.00000000e+00
0.00000000e+00
0.00000000e+00
0.00000000e+00
0.00000000e+00
0.00000000e+00
0.00000000e+00