# vtk DataFile Version 3.0 
Date: 3/21/2016   Time: 13:53
ASCII 
DATASET UNSTRUCTURED_GRID 
 
POINTS 512 float 
1.000000 0.000000 0.000000 
1.000000 0.080221 0.000000 
1.000000 0.160441 0.000000 
0.966941 0.155668 0.000000 
0.933882 0.150896 0.000000 
0.942203 0.075448 0.000000 
0.950524 0.000000 0.000000 
0.975262 0.000000 0.000000 
1.000000 0.160441 0.000000 
1.000000 0.393069 0.000000 
1.000000 0.625698 0.000000 
0.967703 0.537498 0.000000 
0.935406 0.449299 0.000000 
0.934644 0.300098 0.000000 
0.933882 0.150896 0.000000 
0.966941 0.155668 0.000000 
1.000000 0.625698 0.000000 
1.000000 0.660959 0.000000 
1.000000 0.696219 0.000000 
0.969478 0.670855 0.000000 
0.938956 0.645490 0.000000 
0.937181 0.547395 0.000000 
0.935406 0.449299 0.000000 
0.967703 0.537498 0.000000 
1.000000 0.696219 0.000000 
1.000000 0.744380 0.000000 
1.000000 0.792541 0.000000 
0.970563 0.764327 0.000000 
0.941126 0.736113 0.000000 
0.940041 0.690802 0.000000 
0.938956 0.645490 0.000000 
0.969478 0.670855 0.000000 
1.000000 0.792541 0.000000 
1.000000 0.800485 0.000000 
1.000000 0.808429 0.000000 
0.953354 0.785374 0.000000 
0.906709 0.762320 0.000000 
0.923917 0.749216 0.000000 
0.941126 0.736113 0.000000 
0.970563 0.764327 0.000000 
1.000000 0.808429 0.000000 
1.000000 0.827440 0.000000 
1.000000 0.846451 0.000000 
0.939477 0.851819 0.000000 
0.878954 0.857187 0.000000 
0.892832 0.809754 0.000000 
0.906709 0.762320 0.000000 
0.953354 0.785374 0.000000 
1.000000 0.846451 0.000000 
1.000000 0.872240 0.000000 
1.000000 0.898030 0.000000 
0.867185 0.927217 0.000000 
0.734371 0.956404 0.000000 
0.806663 0.906796 0.000000 
0.878954 0.857187 0.000000 
0.939477 0.851819 0.000000 
1.000000 0.898030 0.000000 
1.000000 0.949015 0.000000 
1.000000 1.000000 0.000000 
0.904705 1.000000 0.000000 
0.809411 1.000000 0.000000 
0.771891 0.978202 0.000000 
0.734371 0.956404 0.000000 
0.867185 0.927217 0.000000 
0.950524 0.000000 0.000000 
0.942203 0.075448 0.000000 
0.933882 0.150896 0.000000 
0.878210 0.141512 0.000000 
0.822538 0.132127 0.000000 
0.799459 0.066063 0.000000 
0.776379 0.000000 0.000000 
0.863452 0.000000 0.000000 
0.933882 0.150896 0.000000 
0.934644 0.300098 0.000000 
0.935406 0.449299 0.000000 
0.912961 0.388005 0.000000 
0.890516 0.326711 0.000000 
0.856527 0.229419 0.000000 
0.822538 0.132127 0.000000 
0.878210 0.141512 0.000000 
0.935406 0.449299 0.000000 
0.937181 0.547395 0.000000 
0.938956 0.645490 0.000000 
0.912161 0.533697 0.000000 
0.885366 0.421905 0.000000 
0.887941 0.374308 0.000000 
0.890516 0.326711 0.000000 
0.912961 0.388005 0.000000 
0.938956 0.645490 0.000000 
0.940041 0.690802 0.000000 
0.941126 0.736113 0.000000 
0.906540 0.702964 0.000000 
0.871955 0.669816 0.000000 
0.878661 0.545860 0.000000 
0.885366 0.421905 0.000000 
0.912161 0.533697 0.000000 
0.941126 0.736113 0.000000 
0.923917 0.749216 0.000000 
0.906709 0.762320 0.000000 
0.826585 0.781956 0.000000 
0.746460 0.801591 0.000000 
0.809208 0.735704 0.000000 
0.871955 0.669816 0.000000 
0.906540 0.702964 0.000000 
0.906709 0.762320 0.000000 
0.892832 0.809754 0.000000 
0.878954 0.857187 0.000000 
0.777680 0.866170 0.000000 
0.676406 0.875152 0.000000 
0.711433 0.838372 0.000000 
0.746460 0.801591 0.000000 
0.826585 0.781956 0.000000 
0.878954 0.857187 0.000000 
0.806663 0.906796 0.000000 
0.734371 0.956404 0.000000 
0.700061 0.964942 0.000000 
0.665751 0.973479 0.000000 
0.671078 0.924316 0.000000 
0.676406 0.875152 0.000000 
0.777680 0.866170 0.000000 
0.734371 0.956404 0.000000 
0.771891 0.978202 0.000000 
0.809411 1.000000 0.000000 
0.736144 1.000000 0.000000 
0.662877 1.000000 0.000000 
0.664314 0.986739 0.000000 
0.665751 0.973479 0.000000 
0.700061 0.964942 0.000000 
0.776379 0.000000 0.000000 
0.799459 0.066063 0.000000 
0.822538 0.132127 0.000000 
0.771515 0.127270 0.000000 
0.720492 0.122413 0.000000 
0.725706 0.061206 0.000000 
0.730920 0.000000 0.000000 
0.753650 0.000000 0.000000 
0.822538 0.132127 0.000000 
0.856527 0.229419 0.000000 
0.890516 0.326711 0.000000 
0.817821 0.323481 0.000000 
0.745127 0.320251 0.000000 
0.732810 0.221332 0.000000 
0.720492 0.122413 0.000000 
0.771515 0.127270 0.000000 
0.890516 0.326711 0.000000 
0.887941 0.374308 0.000000 
0.885366 0.421905 0.000000 
0.852303 0.403485 0.000000 
0.819241 0.385065 0.000000 
0.782184 0.352658 0.000000 
0.745127 0.320251 0.000000 
0.817821 0.323481 0.000000 
0.885366 0.421905 0.000000 
0.878661 0.545860 0.000000 
0.871955 0.669816 0.000000 
0.849340 0.648140 0.000000 
0.826724 0.626464 0.000000 
0.822982 0.505764 0.000000 
0.819241 0.385065 0.000000 
0.852303 0.403485 0.000000 
0.871955 0.669816 0.000000 
0.809208 0.735704 0.000000 
0.746460 0.801591 0.000000 
0.721275 0.718855 0.000000 
0.696089 0.636119 0.000000 
0.761406 0.631292 0.000000 
0.826724 0.626464 0.000000 
0.849340 0.648140 0.000000 
0.746460 0.801591 0.000000 
0.711433 0.838372 0.000000 
0.676406 0.875152 0.000000 
0.655986 0.803413 0.000000 
0.635565 0.731674 0.000000 
0.665827 0.683897 0.000000 
0.696089 0.636119 0.000000 
0.721275 0.718855 0.000000 
0.676406 0.875152 0.000000 
0.671078 0.924316 0.000000 
0.665751 0.973479 0.000000 
0.613871 0.903801 0.000000 
0.561991 0.834122 0.000000 
0.598778 0.782898 0.000000 
0.635565 0.731674 0.000000 
0.655986 0.803413 0.000000 
0.665751 0.973479 0.000000 
0.664314 0.986739 0.000000 
0.662877 1.000000 0.000000 
0.608032 1.000000 0.000000 
0.553186 1.000000 0.000000 
0.557589 0.917061 0.000000 
0.561991 0.834122 0.000000 
0.613871 0.903801 0.000000 
0.730920 0.000000 0.000000 
0.725706 0.061206 0.000000 
0.720492 0.122413 0.000000 
0.703614 0.159185 0.000000 
0.686736 0.195956 0.000000 
0.697534 0.097978 0.000000 
0.708332 0.000000 0.000000 
0.719626 0.000000 0.000000 
0.720492 0.122413 0.000000 
0.732810 0.221332 0.000000 
0.745127 0.320251 0.000000 
0.709258 0.318657 0.000000 
0.673389 0.317063 0.000000 
0.680063 0.256510 0.000000 
0.686736 0.195956 0.000000 
0.703614 0.159185 0.000000 
0.745127 0.320251 0.000000 
0.782184 0.352658 0.000000 
0.819241 0.385065 0.000000 
0.740636 0.402588 0.000000 
0.662032 0.420111 0.000000 
0.667710 0.368587 0.000000 
0.673389 0.317063 0.000000 
0.709258 0.318657 0.000000 
0.819241 0.385065 0.000000 
0.822982 0.505764 0.000000 
0.826724 0.626464 0.000000 
0.741961 0.545222 0.000000 
0.657197 0.463981 0.000000 
0.659614 0.442046 0.000000 
0.662032 0.420111 0.000000 
0.740636 0.402588 0.000000 
0.826724 0.626464 0.000000 
0.761406 0.631292 0.000000 
0.696089 0.636119 0.000000 
0.664905 0.580151 0.000000 
0.633722 0.524183 0.000000 
0.645460 0.494082 0.000000 
0.657197 0.463981 0.000000 
0.741961 0.545222 0.000000 
0.696089 0.636119 0.000000 
0.665827 0.683897 0.000000 
0.635565 0.731674 0.000000 
0.618106 0.670338 0.000000 
0.600647 0.609002 0.000000 
0.617185 0.566593 0.000000 
0.633722 0.524183 0.000000 
0.664905 0.580151 0.000000 
0.635565 0.731674 0.000000 
0.598778 0.782898 0.000000 
0.561991 0.834122 0.000000 
0.560021 0.776180 0.000000 
0.558051 0.718238 0.000000 
0.579349 0.663620 0.000000 
0.600647 0.609002 0.000000 
0.618106 0.670338 0.000000 
0.561991 0.834122 0.000000 
0.557589 0.917061 0.000000 
0.553186 1.000000 0.000000 
0.500682 1.000000 0.000000 
0.448179 1.000000 0.000000 
0.503115 0.859119 0.000000 
0.558051 0.718238 0.000000 
0.560021 0.776180 0.000000 
0.708332 0.000000 0.000000 
0.697534 0.097978 0.000000 
0.686736 0.195956 0.000000 
0.635244 0.141595 0.000000 
0.583753 0.087234 0.000000 
0.489919 0.043617 0.000000 
0.396085 0.000000 0.000000 
0.552208 0.000000 0.000000 
0.686736 0.195956 0.000000 
0.680063 0.256510 0.000000 
0.673389 0.317063 0.000000 
0.637020 0.285565 0.000000 
0.600652 0.254066 0.000000 
0.592202 0.170650 0.000000 
0.583753 0.087234 0.000000 
0.635244 0.141595 0.000000 
0.673389 0.317063 0.000000 
0.667710 0.368587 0.000000 
0.662032 0.420111 0.000000 
0.536002 0.449243 0.000000 
0.409972 0.478375 0.000000 
0.505312 0.366221 0.000000 
0.600652 0.254066 0.000000 
0.637020 0.285565 0.000000 
0.662032 0.420111 0.000000 
0.659614 0.442046 0.000000 
0.657197 0.463981 0.000000 
0.544131 0.493538 0.000000 
0.431065 0.523096 0.000000 
0.420519 0.500736 0.000000 
0.409972 0.478375 0.000000 
0.536002 0.449243 0.000000 
0.657197 0.463981 0.000000 
0.645460 0.494082 0.000000 
0.633722 0.524183 0.000000 
0.568614 0.553847 0.000000 
0.503506 0.583511 0.000000 
0.467286 0.553303 0.000000 
0.431065 0.523096 0.000000 
0.544131 0.493538 0.000000 
0.633722 0.524183 0.000000 
0.617185 0.566593 0.000000 
0.600647 0.609002 0.000000 
0.568078 0.634856 0.000000 
0.535508 0.660709 0.000000 
0.519507 0.622110 0.000000 
0.503506 0.583511 0.000000 
0.568614 0.553847 0.000000 
0.600647 0.609002 0.000000 
0.579349 0.663620 0.000000 
0.558051 0.718238 0.000000 
0.535672 0.733755 0.000000 
0.513293 0.749272 0.000000 
0.524401 0.704991 0.000000 
0.535508 0.660709 0.000000 
0.568078 0.634856 0.000000 
0.558051 0.718238 0.000000 
0.503115 0.859119 0.000000 
0.448179 1.000000 0.000000 
0.432978 1.000000 0.000000 
0.417777 1.000000 0.000000 
0.465535 0.874636 0.000000 
0.513293 0.749272 0.000000 
0.535672 0.733755 0.000000 
0.396085 0.000000 0.000000 
0.489919 0.043617 0.000000 
0.583753 0.087234 0.000000 
0.475158 0.079908 0.000000 
0.366564 0.072582 0.000000 
0.318123 0.036291 0.000000 
0.269682 0.000000 0.000000 
0.332884 0.000000 0.000000 
0.583753 0.087234 0.000000 
0.592202 0.170650 0.000000 
0.600652 0.254066 0.000000 
0.574531 0.231443 0.000000 
0.548411 0.208820 0.000000 
0.457487 0.140701 0.000000 
0.366564 0.072582 0.000000 
0.475158 0.079908 0.000000 
0.600652 0.254066 0.000000 
0.505312 0.366221 0.000000 
0.409972 0.478375 0.000000 
0.442022 0.391361 0.000000 
0.474073 0.304346 0.000000 
0.511242 0.256583 0.000000 
0.548411 0.208820 0.000000 
0.574531 0.231443 0.000000 
0.409972 0.478375 0.000000 
0.420519 0.500736 0.000000 
0.431065 0.523096 0.000000 
0.351212 0.543971 0.000000 
0.271358 0.564846 0.000000 
0.372715 0.434596 0.000000 
0.474073 0.304346 0.000000 
0.442022 0.391361 0.000000 
0.431065 0.523096 0.000000 
0.467286 0.553303 0.000000 
0.503506 0.583511 0.000000 
0.417970 0.629020 0.000000 
0.332434 0.674528 0.000000 
0.301896 0.619687 0.000000 
0.271358 0.564846 0.000000 
0.351212 0.543971 0.000000 
0.503506 0.583511 0.000000 
0.519507 0.622110 0.000000 
0.535508 0.660709 0.000000 
0.462426 0.718721 0.000000 
0.389345 0.776733 0.000000 
0.360889 0.725631 0.000000 
0.332434 0.674528 0.000000 
0.417970 0.629020 0.000000 
0.535508 0.660709 0.000000 
0.524401 0.704991 0.000000 
0.513293 0.749272 0.000000 
0.431644 0.813226 0.000000 
0.349994 0.877179 0.000000 
0.369669 0.826956 0.000000 
0.389345 0.776733 0.000000 
0.462426 0.718721 0.000000 
0.513293 0.749272 0.000000 
0.465535 0.874636 0.000000 
0.417777 1.000000 0.000000 
0.359827 1.000000 0.000000 
0.301877 1.000000 0.000000 
0.325936 0.938589 0.000000 
0.349994 0.877179 0.000000 
0.431644 0.813226 0.000000 
0.269682 0.000000 0.000000 
0.318123 0.036291 0.000000 
0.366564 0.072582 0.000000 
0.329608 0.101886 0.000000 
0.292653 0.131190 0.000000 
0.174227 0.065595 0.000000 
0.055801 0.000000 0.000000 
0.162742 0.000000 0.000000 
0.366564 0.072582 0.000000 
0.457487 0.140701 0.000000 
0.548411 0.208820 0.000000 
0.375319 0.255339 0.000000 
0.202228 0.301858 0.000000 
0.247441 0.216524 0.000000 
0.292653 0.131190 0.000000 
0.329608 0.101886 0.000000 
0.548411 0.208820 0.000000 
0.511242 0.256583 0.000000 
0.474073 0.304346 0.000000 
0.319424 0.372571 0.000000 
0.164775 0.440795 0.000000 
0.183501 0.371327 0.000000 
0.202228 0.301858 0.000000 
0.375319 0.255339 0.000000 
0.474073 0.304346 0.000000 
0.372715 0.434596 0.000000 
0.271358 0.564846 0.000000 
0.175496 0.589905 0.000000 
0.079635 0.614965 0.000000 
0.122205 0.527880 0.000000 
0.164775 0.440795 0.000000 
0.319424 0.372571 0.000000 
0.271358 0.564846 0.000000 
0.301896 0.619687 0.000000 
0.332434 0.674528 0.000000 
0.279891 0.697925 0.000000 
0.227348 0.721323 0.000000 
0.153491 0.668144 0.000000 
0.079635 0.614965 0.000000 
0.175496 0.589905 0.000000 
0.332434 0.674528 0.000000 
0.360889 0.725631 0.000000 
0.389345 0.776733 0.000000 
0.331836 0.772662 0.000000 
0.274326 0.768590 0.000000 
0.250837 0.744957 0.000000 
0.227348 0.721323 0.000000 
0.279891 0.697925 0.000000 
0.389345 0.776733 0.000000 
0.369669 0.826956 0.000000 
0.349994 0.877179 0.000000 
0.309245 0.861069 0.000000 
0.268496 0.844959 0.000000 
0.271411 0.806774 0.000000 
0.274326 0.768590 0.000000 
0.331836 0.772662 0.000000 
0.349994 0.877179 0.000000 
0.325936 0.938589 0.000000 
0.301877 1.000000 0.000000 
0.265267 1.000000 0.000000 
0.228657 1.000000 0.000000 
0.248577 0.922480 0.000000 
0.268496 0.844959 0.000000 
0.309245 0.861069 0.000000 
0.055801 0.000000 0.000000 
0.174227 0.065595 0.000000 
0.292653 0.131190 0.000000 
0.146327 0.202942 0.000000 
0.000000 0.274694 0.000000 
0.000000 0.137347 0.000000 
0.000000 0.000000 0.000000 
0.027901 0.000000 0.000000 
0.292653 0.131190 0.000000 
0.247441 0.216524 0.000000 
0.202228 0.301858 0.000000 
0.101114 0.329033 0.000000 
0.000000 0.356208 0.000000 
0.000000 0.315451 0.000000 
0.000000 0.274694 0.000000 
0.146327 0.202942 0.000000 
0.202228 0.301858 0.000000 
0.183501 0.371327 0.000000 
0.164775 0.440795 0.000000 
0.082388 0.446195 0.000000 
0.000000 0.451596 0.000000 
0.000000 0.403902 0.000000 
0.000000 0.356208 0.000000 
0.101114 0.329033 0.000000 
0.164775 0.440795 0.000000 
0.122205 0.527880 0.000000 
0.079635 0.614965 0.000000 
0.039817 0.625374 0.000000 
0.000000 0.635783 0.000000 
0.000000 0.543689 0.000000 
0.000000 0.451596 0.000000 
0.082388 0.446195 0.000000 
0.079635 0.614965 0.000000 
0.153491 0.668144 0.000000 
0.227348 0.721323 0.000000 
0.113674 0.719144 0.000000 
0.000000 0.716965 0.000000 
0.000000 0.676374 0.000000 
0.000000 0.635783 0.000000 
0.039817 0.625374 0.000000 
0.227348 0.721323 0.000000 
0.250837 0.744957 0.000000 
0.274326 0.768590 0.000000 
0.137163 0.758880 0.000000 
0.000000 0.749170 0.000000 
0.000000 0.733067 0.000000 
0.000000 0.716965 0.000000 
0.113674 0.719144 0.000000 
0.274326 0.768590 0.000000 
0.271411 0.806774 0.000000 
0.268496 0.844959 0.000000 
0.134248 0.864596 0.000000 
0.000000 0.884233 0.000000 
0.000000 0.816701 0.000000 
0.000000 0.749170 0.000000 
0.137163 0.758880 0.000000 
0.268496 0.844959 0.000000 
0.248577 0.922480 0.000000 
0.228657 1.000000 0.000000 
0.114329 1.000000 0.000000 
0.000000 1.000000 0.000000 
0.000000 0.942117 0.000000 
0.000000 0.884233 0.000000 
0.134248 0.864596 0.000000 
CELLS 64 576 
 8 0 1 2 3 4 5 6 7  
 8 8 9 10 11 12 13 14 15  
 8 16 17 18 19 20 21 22 23  
 8 24 25 26 27 28 29 30 31  
 8 32 33 34 35 36 37 38 39  
 8 40 41 42 43 44 45 46 47  
 8 48 49 50 51 52 53 54 55  
 8 56 57 58 59 60 61 62 63  
 8 64 65 66 67 68 69 70 71  
 8 72 73 74 75 76 77 78 79  
 8 80 81 82 83 84 85 86 87  
 8 88 89 90 91 92 93 94 95  
 8 96 97 98 99 100 101 102 103  
 8 104 105 106 107 108 109 110 111  
 8 112 113 114 115 116 117 118 119  
 8 120 121 122 123 124 125 126 127  
 8 128 129 130 131 132 133 134 135  
 8 136 137 138 139 140 141 142 143  
 8 144 145 146 147 148 149 150 151  
 8 152 153 154 155 156 157 158 159  
 8 160 161 162 163 164 165 166 167  
 8 168 169 170 171 172 173 174 175  
 8 176 177 178 179 180 181 182 183  
 8 184 185 186 187 188 189 190 191  
 8 192 193 194 195 196 197 198 199  
 8 200 201 202 203 204 205 206 207  
 8 208 209 210 211 212 213 214 215  
 8 216 217 218 219 220 221 222 223  
 8 224 225 226 227 228 229 230 231  
 8 232 233 234 235 236 237 238 239  
 8 240 241 242 243 244 245 246 247  
 8 248 249 250 251 252 253 254 255  
 8 256 257 258 259 260 261 262 263  
 8 264 265 266 267 268 269 270 271  
 8 272 273 274 275 276 277 278 279  
 8 280 281 282 283 284 285 286 287  
 8 288 289 290 291 292 293 294 295  
 8 296 297 298 299 300 301 302 303  
 8 304 305 306 307 308 309 310 311  
 8 312 313 314 315 316 317 318 319  
 8 320 321 322 323 324 325 326 327  
 8 328 329 330 331 332 333 334 335  
 8 336 337 338 339 340 341 342 343  
 8 344 345 346 347 348 349 350 351  
 8 352 353 354 355 356 357 358 359  
 8 360 361 362 363 364 365 366 367  
 8 368 369 370 371 372 373 374 375  
 8 376 377 378 379 380 381 382 383  
 8 384 385 386 387 388 389 390 391  
 8 392 393 394 395 396 397 398 399  
 8 400 401 402 403 404 405 406 407  
 8 408 409 410 411 412 413 414 415  
 8 416 417 418 419 420 421 422 423  
 8 424 425 426 427 428 429 430 431  
 8 432 433 434 435 436 437 438 439  
 8 440 441 442 443 444 445 446 447  
 8 448 449 450 451 452 453 454 455  
 8 456 457 458 459 460 461 462 463  
 8 464 465 466 467 468 469 470 471  
 8 472 473 474 475 476 477 478 479  
 8 480 481 482 483 484 485 486 487  
 8 488 489 490 491 492 493 494 495  
 8 496 497 498 499 500 501 502 503  
 8 504 505 506 507 508 509 510 511  
 
CELL_TYPES 64
7
7
7
7
7
7
7
7
7
7
7
7
7
7
7
7
7
7
7
7
7
7
7
7
7
7
7
7
7
7
7
7
7
7
7
7
7
7
7
7
7
7
7
7
7
7
7
7
7
7
7
7
7
7
7
7
7
7
7
7
7
7
7
7
CELL_DATA 64
FIELD FieldData 1
material 1 64 int
1
1
1
1
1
1
1
1
1
1
1
1
1
1
1
1
1
1
1
1
1
1
1
1
1
1
1
1
1
1
1
1
1
1
1
1
1
1
1
1
1
1
1
1
1
1
1
1
1
1
1
1
1
1
1
1
1
1
1
1
1
1
1
1
POINT_DATA 512 SCALARS flux double 
LOOKUP_TABLE   default 
1.42108547e-14
-3.55271368e-15
2.13162821e-14
0.00000000e+00
1.42108547e-14
0.00000000e+00
1.06581410e-14
3.55271368e-15
3.55271368e-15
6.75015599e-14
1.42108547e-14
0.00000000e+00
4.97379915e-14
0.00000000e+00
2.66453526e-14
0.00000000e+00
3.19744231e-14
-3.55271368e-15
1.77635684e-14
0.00000000e+00
2.13162821e-14
0.00000000e+00
4.26325641e-14
0.00000000e+00
2.13162821e-14
2.84217094e-14
4.26325641e-14
0.00000000e+00
2.13162821e-14
0.00000000e+00
2.48689958e-14
0.00000000e+00
1.77635684e-14
5.32907052e-14
1.42108547e-14
0.00000000e+00
2.13162821e-14
0.00000000e+00
1.42108547e-14
0.00000000e+00
1.77635684e-14
3.19744231e-14
1.42108547e-14
0.00000000e+00
4.61852778e-14
0.00000000e+00
2.84217094e-14
0.00000000e+00
1.77635684e-14
7.10542736e-15
7.10542736e-15
0.00000000e+00
3.19744231e-14
0.00000000e+00
4.26325641e-14
0.00000000e+00
2.48689958e-14
7.10542736e-15
1.06581410e-14
3.55271368e-15
-3.55271368e-15
0.00000000e+00
3.55271368e-14
0.00000000e+00
5.32907052e-15
0.00000000e+00
1.77635684e-14
0.00000000e+00
1.06581410e-14
0.00000000e+00
1.06581410e-14
-1.06581410e-14
1.95399252e-14
0.00000000e+00
3.90798505e-14
0.00000000e+00
1.59872116e-14
0.00000000e+00
1.59872116e-14
0.00000000e+00
4.61852778e-14
0.00000000e+00
1.42108547e-14
0.00000000e+00
3.55271368e-15
0.00000000e+00
2.30926389e-14
0.00000000e+00
1.06581410e-14
0.00000000e+00
2.48689958e-14
0.00000000e+00
1.42108547e-14
0.00000000e+00
0.00000000e+00
0.00000000e+00
1.06581410e-14
0.00000000e+00
3.55271368e-14
0.00000000e+00
6.03961325e-14
0.00000000e+00
2.13162821e-14
0.00000000e+00
3.19744231e-14
0.00000000e+00
4.26325641e-14
0.00000000e+00
1.77635684e-14
0.00000000e+00
4.97379915e-14
0.00000000e+00
4.26325641e-14
0.00000000e+00
1.42108547e-14
0.00000000e+00
1.42108547e-14
0.00000000e+00
2.13162821e-14
0.00000000e+00
4.26325641e-14
0.00000000e+00
-7.10542736e-15
2.13162821e-14
1.77635684e-14
0.00000000e+00
1.06581410e-14
0.00000000e+00
-3.55271368e-15
0.00000000e+00
3.55271368e-15
0.00000000e+00
5.32907052e-15
0.00000000e+00
-3.55271368e-15
1.77635684e-14
1.95399252e-14
0.00000000e+00
3.55271368e-14
0.00000000e+00
3.19744231e-14
0.00000000e+00
1.77635684e-14
0.00000000e+00
2.84217094e-14
0.00000000e+00
1.06581410e-14
0.00000000e+00
3.01980663e-14
0.00000000e+00
2.84217094e-14
0.00000000e+00
2.48689958e-14
0.00000000e+00
3.90798505e-14
0.00000000e+00
3.55271368e-14
0.00000000e+00
4.61852778e-14
0.00000000e+00
7.10542736e-15
0.00000000e+00
3.90798505e-14
0.00000000e+00
2.48689958e-14
0.00000000e+00
1.42108547e-14
0.00000000e+00
4.61852778e-14
0.00000000e+00
2.13162821e-14
0.00000000e+00
2.13162821e-14
0.00000000e+00
4.61852778e-14
0.00000000e+00
2.48689958e-14
0.00000000e+00
2.13162821e-14
0.00000000e+00
2.13162821e-14
0.00000000e+00
2.84217094e-14
0.00000000e+00
1.06581410e-14
0.00000000e+00
2.48689958e-14
0.00000000e+00
1.42108547e-14
0.00000000e+00
1.06581410e-14
0.00000000e+00
7.10542736e-15
0.00000000e+00
1.95399252e-14
0.00000000e+00
2.48689958e-14
0.00000000e+00
0.00000000e+00
-1.77635684e-15
1.24344979e-14
0.00000000e+00
2.84217094e-14
0.00000000e+00
2.84217094e-14
0.00000000e+00
2.30926389e-14
0.00000000e+00
3.90798505e-14
0.00000000e+00
2.48689958e-14
0.00000000e+00
3.01980663e-14
0.00000000e+00
2.13162821e-14
0.00000000e+00
4.26325641e-14
0.00000000e+00
3.55271368e-14
0.00000000e+00
4.79616347e-14
0.00000000e+00
2.84217094e-14
0.00000000e+00
2.84217094e-14
0.00000000e+00
2.48689958e-14
0.00000000e+00
4.97379915e-14
0.00000000e+00
2.66453526e-14
0.00000000e+00
3.55271368e-14
0.00000000e+00
1.42108547e-14
0.00000000e+00
4.26325641e-14
0.00000000e+00
6.03961325e-14
0.00000000e+00
1.77635684e-14
0.00000000e+00
1.06581410e-14
0.00000000e+00
1.77635684e-14
0.00000000e+00
4.26325641e-14
0.00000000e+00
1.77635684e-14
0.00000000e+00
1.77635684e-14
2.48689958e-14
2.84217094e-14
0.00000000e+00
1.42108547e-14
0.00000000e+00
3.55271368e-15
0.00000000e+00
1.77635684e-14
0.00000000e+00
1.77635684e-14
0.00000000e+00
5.32907052e-15
5.32907052e-15
2.13162821e-14
0.00000000e+00
2.48689958e-14
0.00000000e+00
2.13162821e-14
0.00000000e+00
1.24344979e-14
0.00000000e+00
0.00000000e+00
0.00000000e+00
1.42108547e-14
0.00000000e+00
5.50670620e-14
0.00000000e+00
1.59872116e-14
0.00000000e+00
3.55271368e-14
0.00000000e+00
4.79616347e-14
0.00000000e+00
5.68434189e-14
0.00000000e+00
6.57252031e-14
0.00000000e+00
3.19744231e-14
0.00000000e+00
5.15143483e-14
0.00000000e+00
6.03961325e-14
0.00000000e+00
4.26325641e-14
0.00000000e+00
4.61852778e-14
0.00000000e+00
3.55271368e-14
0.00000000e+00
3.90798505e-14
0.00000000e+00
5.50670620e-14
0.00000000e+00
2.84217094e-14
0.00000000e+00
3.55271368e-15
0.00000000e+00
5.68434189e-14
0.00000000e+00
4.26325641e-14
0.00000000e+00
-3.55271368e-14
0.00000000e+00
2.48689958e-14
-2.48689958e-14
-1.42108547e-14
0.00000000e+00
5.32907052e-14
0.00000000e+00
8.88178420e-15
0.00000000e+00
1.42108547e-14
0.00000000e+00
0.00000000e+00
0.00000000e+00
1.24344979e-14
8.88178420e-15
1.24344979e-14
0.00000000e+00
1.42108547e-14
0.00000000e+00
1.24344979e-14
0.00000000e+00
-8.88178420e-15
0.00000000e+00
1.77635684e-14
0.00000000e+00
5.86197757e-14
0.00000000e+00
3.19744231e-14
0.00000000e+00
-1.42108547e-14
0.00000000e+00
4.97379915e-14
0.00000000e+00
4.97379915e-14
0.00000000e+00
5.50670620e-14
0.00000000e+00
3.19744231e-14
0.00000000e+00
4.08562073e-14
0.00000000e+00
6.75015599e-14
0.00000000e+00
4.97379915e-14
0.00000000e+00
5.15143483e-14
0.00000000e+00
7.63833441e-14
0.00000000e+00
4.61852778e-14
0.00000000e+00
5.86197757e-14
0.00000000e+00
3.73034936e-14
0.00000000e+00
3.19744231e-14
0.00000000e+00
4.97379915e-14
0.00000000e+00
1.77635684e-14
0.00000000e+00
4.61852778e-14
0.00000000e+00
5.68434189e-14
0.00000000e+00
1.77635684e-14
7.46069873e-14
0.00000000e+00
0.00000000e+00
2.48689958e-14
0.00000000e+00
7.99360578e-15
0.00000000e+00
-1.77635684e-15
0.00000000e+00
1.06581410e-14
0.00000000e+00
5.32907052e-15
7.99360578e-15
7.10542736e-15
0.00000000e+00
7.10542736e-15
0.00000000e+00
-1.77635684e-15
0.00000000e+00
2.30926389e-14
0.00000000e+00
5.32907052e-15
0.00000000e+00
4.44089210e-14
0.00000000e+00
2.30926389e-14
0.00000000e+00
5.32907052e-15
0.00000000e+00
7.10542736e-15
0.00000000e+00
3.37507799e-14
0.00000000e+00
2.48689958e-14
0.00000000e+00
2.66453526e-14
0.00000000e+00
4.61852778e-14
0.00000000e+00
3.90798505e-14
0.00000000e+00
2.13162821e-14
0.00000000e+00
1.42108547e-14
0.00000000e+00
3.90798505e-14
0.00000000e+00
5.68434189e-14
0.00000000e+00
2.30926389e-14
0.00000000e+00
1.59872116e-14
0.00000000e+00
6.39488462e-14
0.00000000e+00
1.95399252e-14
0.00000000e+00
3.01980663e-14
0.00000000e+00
2.84217094e-14
0.00000000e+00
1.95399252e-14
0.00000000e+00
1.77635684e-14
1.77635684e-14
1.24344979e-14
0.00000000e+00
3.37507799e-14
0.00000000e+00
-6.21724894e-15
0.00000000e+00
1.77635684e-15
0.00000000e+00
0.00000000e+00
8.88178420e-16
-6.21724894e-15
-1.68753900e-14
7.10542736e-15
0.00000000e+00
2.66453526e-14
0.00000000e+00
1.24344979e-14
2.48689958e-14
1.77635684e-15
0.00000000e+00
1.42108547e-14
0.00000000e+00
2.48689958e-14
0.00000000e+00
3.55271368e-15
0.00000000e+00
1.59872116e-14
0.00000000e+00
2.48689958e-14
0.00000000e+00
1.95399252e-14
0.00000000e+00
1.77635684e-14
0.00000000e+00
-1.77635684e-15
0.00000000e+00
1.77635684e-14
0.00000000e+00
1.95399252e-14
0.00000000e+00
5.32907052e-15
1.42108547e-14
1.59872116e-14
0.00000000e+00
2.13162821e-14
0.00000000e+00
2.66453526e-14
0.00000000e+00
5.32907052e-15
8.88178420e-15
1.06581410e-14
0.00000000e+00
3.19744231e-14
0.00000000e+00
2.66453526e-14
0.00000000e+00
3.55271368e-15
1.77635684e-14
1.77635684e-15
0.00000000e+00
3.19744231e-14
0.00000000e+00
1.59872116e-14
7.10542736e-15
1.59872116e-14
7.10542736e-15
7.10542736e-15
0.00000000e+00
 
