# vtk DataFile Version 3.0 
Date: 3/21/2016   Time: 13:54
ASCII 
DATASET UNSTRUCTURED_GRID 
 
POINTS 1072 float 
0.000000 0.000000 0.000000 
0.025000 0.000000 0.000000 
0.050000 0.000000 0.000000 
0.050000 0.002500 0.000000 
0.050000 0.005000 0.000000 
0.025000 0.005000 0.000000 
0.000000 0.005000 0.000000 
0.000000 0.002500 0.000000 
0.000000 0.005000 0.000000 
0.025000 0.005000 0.000000 
0.050000 0.005000 0.000000 
0.050000 0.010000 0.000000 
0.050000 0.015000 0.000000 
0.025000 0.015000 0.000000 
0.000000 0.015000 0.000000 
0.000000 0.010000 0.000000 
0.000000 0.015000 0.000000 
0.025000 0.015000 0.000000 
0.050000 0.015000 0.000000 
0.050000 0.020000 0.000000 
0.050000 0.025000 0.000000 
0.025000 0.025000 0.000000 
0.000000 0.025000 0.000000 
0.000000 0.020000 0.000000 
0.000000 0.025000 0.000000 
0.025000 0.025000 0.000000 
0.050000 0.025000 0.000000 
0.050000 0.030000 0.000000 
0.050000 0.035000 0.000000 
0.025000 0.035000 0.000000 
0.000000 0.035000 0.000000 
0.000000 0.030000 0.000000 
0.000000 0.035000 0.000000 
0.025000 0.035000 0.000000 
0.050000 0.035000 0.000000 
0.050000 0.040000 0.000000 
0.050000 0.045000 0.000000 
0.025000 0.045000 0.000000 
0.000000 0.045000 0.000000 
0.000000 0.040000 0.000000 
0.000000 0.045000 0.000000 
0.025000 0.045000 0.000000 
0.050000 0.045000 0.000000 
0.050000 0.095000 0.000000 
0.050000 0.145000 0.000000 
0.025000 0.145000 0.000000 
0.000000 0.145000 0.000000 
0.000000 0.095000 0.000000 
0.000000 0.145000 0.000000 
0.025000 0.145000 0.000000 
0.050000 0.145000 0.000000 
0.050000 0.240000 0.000000 
0.050000 0.335000 0.000000 
0.025000 0.335000 0.000000 
0.000000 0.335000 0.000000 
0.000000 0.240000 0.000000 
0.000000 0.335000 0.000000 
0.025000 0.335000 0.000000 
0.050000 0.335000 0.000000 
0.050000 0.430000 0.000000 
0.050000 0.525000 0.000000 
0.025000 0.525000 0.000000 
0.000000 0.525000 0.000000 
0.000000 0.430000 0.000000 
0.000000 0.525000 0.000000 
0.025000 0.525000 0.000000 
0.050000 0.525000 0.000000 
0.050000 0.620000 0.000000 
0.050000 0.715000 0.000000 
0.025000 0.715000 0.000000 
0.000000 0.715000 0.000000 
0.000000 0.620000 0.000000 
0.000000 0.715000 0.000000 
0.025000 0.715000 0.000000 
0.050000 0.715000 0.000000 
0.050000 0.810000 0.000000 
0.050000 0.905000 0.000000 
0.025000 0.905000 0.000000 
0.000000 0.905000 0.000000 
0.000000 0.810000 0.000000 
0.000000 0.905000 0.000000 
0.025000 0.905000 0.000000 
0.050000 0.905000 0.000000 
0.050000 0.952500 0.000000 
0.050000 1.000000 0.000000 
0.025000 1.000000 0.000000 
0.000000 1.000000 0.000000 
0.000000 0.952500 0.000000 
0.050000 0.000000 0.000000 
0.100000 0.000000 0.000000 
0.150000 0.000000 0.000000 
0.150000 0.002500 0.000000 
0.150000 0.005000 0.000000 
0.100000 0.005000 0.000000 
0.050000 0.005000 0.000000 
0.050000 0.002500 0.000000 
0.050000 0.005000 0.000000 
0.100000 0.005000 0.000000 
0.150000 0.005000 0.000000 
0.150000 0.010000 0.000000 
0.150000 0.015000 0.000000 
0.100000 0.015000 0.000000 
0.050000 0.015000 0.000000 
0.050000 0.010000 0.000000 
0.050000 0.015000 0.000000 
0.100000 0.015000 0.000000 
0.150000 0.015000 0.000000 
0.150000 0.020000 0.000000 
0.150000 0.025000 0.000000 
0.100000 0.025000 0.000000 
0.050000 0.025000 0.000000 
0.050000 0.020000 0.000000 
0.050000 0.025000 0.000000 
0.100000 0.025000 0.000000 
0.150000 0.025000 0.000000 
0.150000 0.030000 0.000000 
0.150000 0.035000 0.000000 
0.100000 0.035000 0.000000 
0.050000 0.035000 0.000000 
0.050000 0.030000 0.000000 
0.050000 0.035000 0.000000 
0.100000 0.035000 0.000000 
0.150000 0.035000 0.000000 
0.150000 0.040000 0.000000 
0.150000 0.045000 0.000000 
0.100000 0.045000 0.000000 
0.050000 0.045000 0.000000 
0.050000 0.040000 0.000000 
0.050000 0.045000 0.000000 
0.100000 0.045000 0.000000 
0.150000 0.045000 0.000000 
0.150000 0.095000 0.000000 
0.150000 0.145000 0.000000 
0.100000 0.145000 0.000000 
0.050000 0.145000 0.000000 
0.050000 0.095000 0.000000 
0.050000 0.145000 0.000000 
0.100000 0.145000 0.000000 
0.150000 0.145000 0.000000 
0.150000 0.240000 0.000000 
0.150000 0.335000 0.000000 
0.100000 0.335000 0.000000 
0.050000 0.335000 0.000000 
0.050000 0.240000 0.000000 
0.050000 0.335000 0.000000 
0.100000 0.335000 0.000000 
0.150000 0.335000 0.000000 
0.150000 0.430000 0.000000 
0.150000 0.525000 0.000000 
0.100000 0.525000 0.000000 
0.050000 0.525000 0.000000 
0.050000 0.430000 0.000000 
0.050000 0.525000 0.000000 
0.100000 0.525000 0.000000 
0.150000 0.525000 0.000000 
0.150000 0.620000 0.000000 
0.150000 0.715000 0.000000 
0.100000 0.715000 0.000000 
0.050000 0.715000 0.000000 
0.050000 0.620000 0.000000 
0.050000 0.715000 0.000000 
0.100000 0.715000 0.000000 
0.150000 0.715000 0.000000 
0.150000 0.810000 0.000000 
0.150000 0.905000 0.000000 
0.100000 0.905000 0.000000 
0.050000 0.905000 0.000000 
0.050000 0.810000 0.000000 
0.050000 0.905000 0.000000 
0.100000 0.905000 0.000000 
0.150000 0.905000 0.000000 
0.150000 0.952500 0.000000 
0.150000 1.000000 0.000000 
0.100000 1.000000 0.000000 
0.050000 1.000000 0.000000 
0.050000 0.952500 0.000000 
0.150000 0.000000 0.000000 
0.212500 0.000000 0.000000 
0.275000 0.000000 0.000000 
0.275000 0.002500 0.000000 
0.275000 0.005000 0.000000 
0.212500 0.005000 0.000000 
0.150000 0.005000 0.000000 
0.150000 0.002500 0.000000 
0.150000 0.005000 0.000000 
0.212500 0.005000 0.000000 
0.275000 0.005000 0.000000 
0.275334 0.010000 0.000000 
0.275667 0.015000 0.000000 
0.212834 0.015000 0.000000 
0.150000 0.015000 0.000000 
0.150000 0.010000 0.000000 
0.150000 0.015000 0.000000 
0.212834 0.015000 0.000000 
0.275667 0.015000 0.000000 
0.276334 0.020000 0.000000 
0.277000 0.025000 0.000000 
0.213500 0.025000 0.000000 
0.150000 0.025000 0.000000 
0.150000 0.020000 0.000000 
0.150000 0.025000 0.000000 
0.213500 0.025000 0.000000 
0.277000 0.025000 0.000000 
0.278000 0.030000 0.000000 
0.279000 0.035000 0.000000 
0.214500 0.035000 0.000000 
0.150000 0.035000 0.000000 
0.150000 0.030000 0.000000 
0.150000 0.035000 0.000000 
0.214500 0.035000 0.000000 
0.279000 0.035000 0.000000 
0.280334 0.040000 0.000000 
0.281667 0.045000 0.000000 
0.215834 0.045000 0.000000 
0.150000 0.045000 0.000000 
0.150000 0.040000 0.000000 
0.150000 0.045000 0.000000 
0.215834 0.045000 0.000000 
0.281667 0.045000 0.000000 
0.290000 0.070000 0.000000 
0.298333 0.095000 0.000000 
0.275000 0.120000 0.000000 
0.251667 0.145000 0.000000 
0.200834 0.145000 0.000000 
0.150000 0.145000 0.000000 
0.150000 0.095000 0.000000 
0.150000 0.145000 0.000000 
0.200834 0.145000 0.000000 
0.251667 0.145000 0.000000 
0.275000 0.215000 0.000000 
0.298333 0.285000 0.000000 
0.275000 0.310000 0.000000 
0.251667 0.335000 0.000000 
0.200834 0.335000 0.000000 
0.150000 0.335000 0.000000 
0.150000 0.240000 0.000000 
0.150000 0.335000 0.000000 
0.200834 0.335000 0.000000 
0.251667 0.335000 0.000000 
0.275000 0.405000 0.000000 
0.298333 0.475000 0.000000 
0.275000 0.500000 0.000000 
0.251667 0.525000 0.000000 
0.200834 0.525000 0.000000 
0.150000 0.525000 0.000000 
0.150000 0.430000 0.000000 
0.150000 0.525000 0.000000 
0.200834 0.525000 0.000000 
0.251667 0.525000 0.000000 
0.275000 0.595000 0.000000 
0.298333 0.665000 0.000000 
0.275000 0.690000 0.000000 
0.251667 0.715000 0.000000 
0.200834 0.715000 0.000000 
0.150000 0.715000 0.000000 
0.150000 0.620000 0.000000 
0.150000 0.715000 0.000000 
0.200834 0.715000 0.000000 
0.251667 0.715000 0.000000 
0.275000 0.785000 0.000000 
0.298333 0.855000 0.000000 
0.275000 0.880000 0.000000 
0.251667 0.905000 0.000000 
0.200834 0.905000 0.000000 
0.150000 0.905000 0.000000 
0.150000 0.810000 0.000000 
0.150000 0.905000 0.000000 
0.200834 0.905000 0.000000 
0.251667 0.905000 0.000000 
0.260000 0.930000 0.000000 
0.268333 0.955000 0.000000 
0.269667 0.960000 0.000000 
0.271000 0.965000 0.000000 
0.272000 0.970000 0.000000 
0.273000 0.975000 0.000000 
0.273667 0.980000 0.000000 
0.274333 0.985000 0.000000 
0.274667 0.990000 0.000000 
0.275000 0.995000 0.000000 
0.275000 0.997500 0.000000 
0.275000 1.000000 0.000000 
0.212500 1.000000 0.000000 
0.150000 1.000000 0.000000 
0.150000 0.952500 0.000000 
0.279000 0.035000 0.000000 
0.278000 0.030000 0.000000 
0.277000 0.025000 0.000000 
0.276334 0.020000 0.000000 
0.275667 0.015000 0.000000 
0.275334 0.010000 0.000000 
0.275000 0.005000 0.000000 
0.275000 0.002500 0.000000 
0.275000 0.000000 0.000000 
0.337500 0.000000 0.000000 
0.400000 0.000000 0.000000 
0.400000 0.032500 0.000000 
0.400000 0.065000 0.000000 
0.380500 0.080000 0.000000 
0.361000 0.095000 0.000000 
0.329666 0.095000 0.000000 
0.298333 0.095000 0.000000 
0.290000 0.070000 0.000000 
0.281667 0.045000 0.000000 
0.280334 0.040000 0.000000 
0.251667 0.145000 0.000000 
0.275000 0.120000 0.000000 
0.298333 0.095000 0.000000 
0.329666 0.095000 0.000000 
0.361000 0.095000 0.000000 
0.391000 0.145000 0.000000 
0.421000 0.195000 0.000000 
0.389500 0.240000 0.000000 
0.358000 0.285000 0.000000 
0.328167 0.285000 0.000000 
0.298333 0.285000 0.000000 
0.275000 0.215000 0.000000 
0.251667 0.335000 0.000000 
0.275000 0.310000 0.000000 
0.298333 0.285000 0.000000 
0.328167 0.285000 0.000000 
0.358000 0.285000 0.000000 
0.382000 0.305000 0.000000 
0.406000 0.325000 0.000000 
0.399500 0.390000 0.000000 
0.393000 0.455000 0.000000 
0.379000 0.465000 0.000000 
0.365000 0.475000 0.000000 
0.331666 0.475000 0.000000 
0.298333 0.475000 0.000000 
0.275000 0.405000 0.000000 
0.251667 0.525000 0.000000 
0.275000 0.500000 0.000000 
0.298333 0.475000 0.000000 
0.331666 0.475000 0.000000 
0.365000 0.475000 0.000000 
0.392500 0.530000 0.000000 
0.420000 0.585000 0.000000 
0.388000 0.625000 0.000000 
0.356000 0.665000 0.000000 
0.327167 0.665000 0.000000 
0.298333 0.665000 0.000000 
0.275000 0.595000 0.000000 
0.251667 0.715000 0.000000 
0.275000 0.690000 0.000000 
0.298333 0.665000 0.000000 
0.327167 0.665000 0.000000 
0.356000 0.665000 0.000000 
0.367000 0.675000 0.000000 
0.378000 0.685000 0.000000 
0.392000 0.720000 0.000000 
0.406000 0.755000 0.000000 
0.395500 0.790000 0.000000 
0.385000 0.825000 0.000000 
[...]
CELL_DATA 110
FIELD FieldData 1
material 1 110 int
1
1
1
1
1
1
1
1
1
1
1
1
1
1
1
1
1
1
1
1
1
1
1
1
1
1
1
1
1
1
1
1
1
1
1
1
1
1
1
1
1
1
1
1
1
1
1
1
1
1
1
1
1
1
1
1
1
1
1
1
1
1
1
1
1
1
1
1
1
1
1
1
1
1
1
1
1
1
1
1
1
1
1
1
1
1
1
1
1
1
1
1
1
1
1
1
1
1
1
1
1
1
1
1
1
1
1
1
1
1
POINT_DATA 1072 SCALARS flux double 
LOOKUP_TABLE   default 
9.76996262e-15
-6.21724894e-15
5.32907052e-15
6.21724894e-15
7.99360578e-15
-2.66453526e-15
-2.66453526e-15
8.88178420e-16
-3.55271368e-15
0.00000000e+00
8.88178420e-16
1.77635684e-15
2.66453526e-15
-8.88178420e-16
3.55271368e-15
8.88178420e-16
4.44089210e-15
-2.66453526e-15
0.00000000e+00
3.55271368e-15
7.10542736e-15
-8.88178420e-16
0.00000000e+00
9.76996262e-15
3.55271368e-15
2.66453526e-15
7.99360578e-15
1.06581410e-14
5.32907052e-15
1.24344979e-14
5.32907052e-15
2.66453526e-15
2.66453526e-15
1.33226763e-14
1.77635684e-15
-8.88178420e-16
7.99360578e-15
-1.77635684e-15
7.10542736e-15
9.76996262e-15
8.88178420e-16
4.44089210e-15
7.99360578e-15
6.21724894e-15
3.55271368e-15
4.44089210e-15
8.88178420e-16
5.32907052e-15
-8.88178420e-16
1.77635684e-15
6.21724894e-15
2.13162821e-14
7.10542736e-15
3.55271368e-15
8.88178420e-15
2.13162821e-14
8.88178420e-15
0.00000000e+00
7.10542736e-15
2.13162821e-14
1.06581410e-14
1.77635684e-15
8.88178420e-15
1.77635684e-14
7.10542736e-15
3.55271368e-15
8.88178420e-15
2.48689958e-14
-8.88178420e-15
-8.88178420e-15
-5.32907052e-15
8.88178420e-15
-1.77635684e-15
-3.55271368e-15
-1.77635684e-15
3.90798505e-14
-1.42108547e-14
-1.06581410e-14
-1.77635684e-14
3.01980663e-14
-1.06581410e-14
0.00000000e+00
-1.42108547e-14
1.77635684e-14
1.59872116e-14
1.42108547e-14
8.88178420e-15
1.06581410e-14
7.10542736e-15
-3.55271368e-15
-2.66453526e-15
4.44089210e-15
1.33226763e-14
-9.76996262e-15
4.44089210e-15
1.15463195e-14
1.06581410e-14
-1.33226763e-14
1.33226763e-14
3.55271368e-14
9.76996262e-15
-1.77635684e-15
3.55271368e-15
7.99360578e-15
-8.88178420e-16
5.32907052e-15
3.55271368e-15
4.44089210e-15
0.00000000e+00
2.66453526e-15
7.10542736e-15
1.15463195e-14
1.42108547e-14
-1.15463195e-14
8.88178420e-16
1.24344979e-14
1.95399252e-14
-6.21724894e-15
0.00000000e+00
1.59872116e-14
0.00000000e+00
-1.77635684e-15
1.24344979e-14
1.59872116e-14
3.55271368e-15
1.33226763e-14
4.44089210e-15
1.15463195e-14
7.10542736e-15
1.86517468e-14
0.00000000e+00
-1.77635684e-15
1.42108547e-14
8.88178420e-15
2.66453526e-15
4.44089210e-15
6.21724894e-15
2.04281037e-14
1.06581410e-14
1.59872116e-14
1.42108547e-14
2.13162821e-14
5.32907052e-15
1.06581410e-14
1.77635684e-15
3.55271368e-14
1.42108547e-14
3.37507799e-14
1.59872116e-14
1.77635684e-14
1.24344979e-14
1.06581410e-14
5.32907052e-15
3.01980663e-14
1.06581410e-14
4.26325641e-14
-5.32907052e-15
1.77635684e-15
-8.88178420e-15
1.59872116e-14
-8.88178420e-15
1.42108547e-14
-3.55271368e-15
3.55271368e-14
8.88178420e-15
1.24344979e-14
-8.88178420e-15
2.66453526e-14
-1.42108547e-14
-1.95399252e-14
-3.55271368e-15
7.10542736e-15
2.66453526e-14
1.59872116e-14
1.59872116e-14
3.01980663e-14
6.21724894e-15
1.77635684e-15
1.77635684e-15
0.00000000e+00
8.88178420e-15
-4.44089210e-15
2.66453526e-15
-9.76996262e-15
1.42108547e-14
-3.10862447e-14
1.24344979e-14
0.00000000e+00
2.48689958e-14
-1.86517468e-14
1.50990331e-14
5.32907052e-15
3.55271368e-15
3.10862447e-14
1.59872116e-14
0.00000000e+00
-2.66453526e-14
5.06261699e-14
1.15463195e-14
1.15463195e-14
1.77635684e-14
1.59872116e-14
-1.59872116e-14
0.00000000e+00
2.48689958e-14
-1.15463195e-14
1.50990331e-14
1.86517468e-14
7.10542736e-15
1.77635684e-15
1.77635684e-14
0.00000000e+00
-3.55271368e-15
-1.77635684e-15
3.55271368e-15
1.68753900e-14
-8.88178420e-16
-8.88178420e-16
-5.32907052e-15
0.00000000e+00
1.59872116e-14
0.00000000e+00
1.77635684e-14
1.59872116e-14
1.77635684e-14
8.88178420e-16
8.88178420e-15
2.13162821e-14
8.88178420e-15
0.00000000e+00
1.77635684e-14
0.00000000e+00
1.77635684e-14
1.59872116e-14
1.59872116e-14
1.06581410e-14
1.59872116e-14
1.59872116e-14
1.24344979e-14
0.00000000e+00
3.19744231e-14
0.00000000e+00
2.48689958e-14
2.30926389e-14
2.30926389e-14
2.66453526e-14
1.42108547e-14
2.30926389e-14
1.59872116e-14
0.00000000e+00
2.30926389e-14
0.00000000e+00
3.55271368e-14
1.95399252e-14
7.10542736e-15
3.73034936e-14
-1.77635684e-15
-3.55271368e-15
3.73034936e-14
0.00000000e+00
8.88178420e-15
0.00000000e+00
2.84217094e-14
3.19744231e-14
3.01980663e-14
1.95399252e-14
1.42108547e-14
1.42108547e-14
2.13162821e-14
0.00000000e+00
-7.63833441e-14
0.00000000e+00
-1.03028697e-13
0.00000000e+00
-3.55271368e-14
0.00000000e+00
-7.99360578e-14
0.00000000e+00
-1.08357767e-13
3.41060513e-13
-7.10542736e-15
-1.77635684e-15
2.66453526e-14
-2.30926389e-14
-6.14619466e-13
0.00000000e+00
-2.62900812e-13
0.00000000e+00
-5.15143483e-13
0.00000000e+00
-2.64677169e-13
2.87769808e-13
1.19015908e-13
-6.75015599e-14
8.70414851e-14
-1.13686838e-13
-1.10134124e-13
0.00000000e+00
-7.10542736e-15
-5.32907052e-15
1.31450406e-13
0.00000000e+00
-2.96651592e-13
0.00000000e+00
3.90798505e-14
0.00000000e+00
1.95399252e-14
9.76996262e-14
-3.55271368e-15
0.00000000e+00
1.59872116e-14
0.00000000e+00
1.59872116e-14
2.48689958e-14
2.66453526e-14
0.00000000e+00
1.77635684e-14
0.00000000e+00
8.88178420e-15
3.55271368e-14
1.59872116e-14
0.00000000e+00
1.95399252e-14
0.00000000e+00
1.59872116e-14
0.00000000e+00
1.77635684e-14
2.13162821e-14
2.48689958e-14
0.00000000e+00
8.88178420e-15
0.00000000e+00
2.13162821e-14
1.95399252e-14
2.13162821e-14
0.00000000e+00
3.37507799e-14
0.00000000e+00
8.88178420e-15
1.06581410e-14
2.84217094e-14
0.00000000e+00
1.95399252e-14
0.00000000e+00
2.48689958e-14
1.06581410e-14
7.10542736e-15
0.00000000e+00
2.84217094e-14
0.00000000e+00
2.84217094e-14
0.00000000e+00
-6.21724894e-14
0.00000000e+00
-3.19744231e-14
-1.24344979e-14
-5.32907052e-15
0.00000000e+00
2.13162821e-14
2.30926389e-14
-2.66453526e-14
0.00000000e+00
1.42108547e-14
0.00000000e+00
1.77635684e-14
5.68434189e-14
1.06581410e-14
0.00000000e+00
1.77635684e-14
0.00000000e+00
-4.26325641e-14
1.66977543e-13
-4.61852778e-14
0.00000000e+00
-6.75015599e-14
1.42108547e-13
5.50670620e-14
0.00000000e+00
7.46069873e-14
4.97379915e-14
-5.32907052e-14
0.00000000e+00
2.48689958e-14
-7.10542736e-15
1.13686838e-13
0.00000000e+00
1.43884904e-13
-7.81597009e-14
3.90798505e-14
0.00000000e+00
8.17124146e-14
-9.59232693e-14
7.10542736e-14
0.00000000e+00
6.92779167e-14
-1.03028697e-13
8.17124146e-14
0.00000000e+00
2.13162821e-14
-3.55271368e-15
-6.21724894e-14
0.00000000e+00
-9.76996262e-14
1.06581410e-13
-2.13162821e-14
-3.55271368e-14
-1.42108547e-14
8.17124146e-14
-7.10542736e-15
-6.75015599e-14
3.90798505e-14
3.19744231e-14
-1.77635684e-14
2.84217094e-14
1.24344979e-14
0.00000000e+00
-2.66453526e-14
-6.21724894e-14
-1.45661261e-13
-3.01980663e-14
1.95399252e-14
0.00000000e+00
-1.33226763e-13
-1.79412041e-13
1.77635684e-15
0.00000000e+00
-1.36779477e-13
0.00000000e+00
-1.06581410e-14
0.00000000e+00
1.42108547e-14
5.15143483e-14
-2.13162821e-14
0.00000000e+00
8.88178420e-15
1.24344979e-14
2.48689958e-14
0.00000000e+00
7.10542736e-15
0.00000000e+00
-1.06581410e-14
0.00000000e+00
-3.55271368e-15
1.95399252e-14
2.48689958e-14
0.00000000e+00
1.06581410e-14
0.00000000e+00
1.77635684e-14
2.30926389e-14
1.59872116e-14
0.00000000e+00
2.13162821e-14
0.00000000e+00
3.37507799e-14
3.19744231e-14
1.95399252e-14
0.00000000e+00
1.95399252e-14
0.00000000e+00
4.61852778e-14
1.95399252e-14
2.30926389e-14
0.00000000e+00
1.42108547e-14
0.00000000e+00
2.84217094e-14
1.42108547e-14
3.01980663e-14
0.00000000e+00
2.84217094e-14
3.19744231e-14
2.48689958e-14
0.00000000e+00
2.84217094e-14
0.00000000e+00
7.10542736e-15
4.26325641e-14
1.42108547e-14
0.00000000e+00
7.10542736e-15
0.00000000e+00
2.13162821e-14
2.84217094e-14
1.06581410e-14
0.00000000e+00
2.13162821e-14
7.10542736e-15
3.73034936e-14
0.00000000e+00
2.48689958e-14
3.73034936e-14
7.10542736e-15
0.00000000e+00
4.26325641e-14
0.00000000e+00
1.77635684e-14
1.06581410e-14
-4.08562073e-14
0.00000000e+00
-1.77635684e-14
0.00000000e+00
-3.01980663e-14
0.00000000e+00
2.13162821e-14
0.00000000e+00
-3.55271368e-14
-3.90798505e-14
3.55271368e-14
0.00000000e+00
1.77635684e-14
-3.55271368e-15
-5.68434189e-14
0.00000000e+00
0.00000000e+00
0.00000000e+00
3.19744231e-14
4.26325641e-14
2.84217094e-14
0.00000000e+00
5.32907052e-14
0.00000000e+00
7.46069873e-14
0.00000000e+00
1.42108547e-14
4.97379915e-14
2.84217094e-14
0.00000000e+00
1.77635684e-14
2.84217094e-14
2.48689958e-14
7.46069873e-14
4.61852778e-14
0.00000000e+00
1.03028697e-13
0.00000000e+00
1.77635684e-15
-1.77635684e-15
5.32907052e-15
5.73763259e-13
2.30926389e-14
0.00000000e+00
4.61852778e-14
0.00000000e+00
6.03961325e-14
0.00000000e+00
2.13162821e-14
3.37507799e-14
1.95399252e-14
5.32907052e-15
1.59872116e-14
4.44089210e-14
1.77635684e-14
0.00000000e+00
-1.42108547e-14
0.00000000e+00
-3.55271368e-15
-4.61852778e-14
-1.49213975e-13
0.00000000e+00
-1.06581410e-14
0.00000000e+00
-1.15463195e-13
-1.10134124e-13
1.77635684e-14
0.00000000e+00
-6.92779167e-14
0.00000000e+00
-7.28306304e-14
-6.75015599e-14
1.06581410e-14
0.00000000e+00
5.86197757e-14
0.00000000e+00
8.88178420e-15
-2.30926389e-14
-9.94759830e-14
0.00000000e+00
3.90798505e-14
3.73034936e-14
-3.55271368e-15
0.00000000e+00
1.42108547e-14
1.42108547e-14
4.08562073e-14
0.00000000e+00
8.88178420e-15
1.59872116e-14
0.00000000e+00
0.00000000e+00
1.06581410e-14
0.00000000e+00
-1.77635684e-15
1.59872116e-14
5.32907052e-15
0.00000000e+00
3.55271368e-15
0.00000000e+00
1.42108547e-14
1.42108547e-14
1.59872116e-14
0.00000000e+00
1.59872116e-14
0.00000000e+00
1.24344979e-14
0.00000000e+00
2.48689958e-14
0.00000000e+00
1.59872116e-14
0.00000000e+00
3.19744231e-14
4.08562073e-14
1.95399252e-14
0.00000000e+00
3.01980663e-14
0.00000000e+00
3.37507799e-14
2.66453526e-14
2.84217094e-14
0.00000000e+00
1.42108547e-14
2.13162821e-14
3.01980663e-14
0.00000000e+00
1.77635684e-15
0.00000000e+00
1.77635684e-14
2.13162821e-14
1.42108547e-14
0.00000000e+00
1.06581410e-14
0.00000000e+00
2.13162821e-14
2.84217094e-14
3.55271368e-14
0.00000000e+00
1.77635684e-14
0.00000000e+00
1.06581410e-14
0.00000000e+00
5.68434189e-14
3.55271368e-15
2.84217094e-14
0.00000000e+00
3.19744231e-14
0.00000000e+00
-2.48689958e-14
-6.39488462e-14
0.00000000e+00
0.00000000e+00
-5.32907052e-14
0.00000000e+00
1.42108547e-14
0.00000000e+00
-1.06581410e-14
-1.42108547e-14
-4.26325641e-14
-1.42108547e-14
1.77635684e-14
2.13162821e-14
3.55271368e-15
2.48689958e-14
5.50670620e-14
-3.90798505e-14
2.13162821e-14
-1.77635684e-15
-3.90798505e-14
-1.06581410e-14
8.88178420e-15
4.97379915e-14
1.59872116e-14
-1.42108547e-14
-4.26325641e-14
0.00000000e+00
6.92779167e-14
-3.55271368e-14
1.06581410e-14
0.00000000e+00
2.48689958e-14
-4.26325641e-14
6.92779167e-14
0.00000000e+00
3.01980663e-14
5.32907052e-15
0.00000000e+00
0.00000000e+00
-2.48689958e-14
4.79616347e-14
-1.77635684e-15
0.00000000e+00
-1.06581410e-14
3.73034936e-14
-4.26325641e-14
0.00000000e+00
-1.59872116e-14
0.00000000e+00
-3.55271368e-15
0.00000000e+00
3.01980663e-14
-1.95399252e-14
-3.73034936e-14
0.00000000e+00
-4.08562073e-14
-2.48689958e-14
3.37507799e-14
0.00000000e+00
0.00000000e+00
0.00000000e+00
-1.77635684e-14
3.55271368e-15
-8.70414851e-14
0.00000000e+00
-1.77635684e-15
0.00000000e+00
5.32907052e-15
0.00000000e+00
-1.35003120e-13
0.00000000e+00
-1.15463195e-13
-6.21724894e-14
-6.57252031e-14
0.00000000e+00
1.59872116e-14
0.00000000e+00
0.00000000e+00
2.84217094e-14
0.00000000e+00
0.00000000e+00
3.90798505e-14
0.00000000e+00
1.77635684e-14
0.00000000e+00
3.55271368e-15
1.42108547e-14
1.59872116e-14
0.00000000e+00
2.13162821e-14
0.00000000e+00
1.06581410e-14
1.95399252e-14
1.24344979e-14
0.00000000e+00
1.77635684e-14
0.00000000e+00
0.00000000e+00
2.30926389e-14
1.77635684e-14
0.00000000e+00
2.13162821e-14
0.00000000e+00
2.84217094e-14
2.13162821e-14
1.06581410e-14
0.00000000e+00
1.42108547e-14
0.00000000e+00
5.68434189e-14
0.00000000e+00
2.84217094e-14
1.42108547e-14
5.32907052e-14
0.00000000e+00
5.68434189e-14
0.00000000e+00
4.61852778e-14
9.23705556e-14
2.13162821e-14
0.00000000e+00
-3.19744231e-14
0.00000000e+00
2.13162821e-14
3.55271368e-14
9.94759830e-14
0.00000000e+00
-1.17239551e-13
0.00000000e+00
-3.76587650e-13
0.00000000e+00
-1.24344979e-13
0.00000000e+00
-3.05533376e-13
0.00000000e+00
-1.91846539e-13
9.98312544e-13
3.55271368e-15
2.48689958e-14
4.61852778e-14
-7.81597009e-14
-2.30926389e-14
0.00000000e+00
7.10542736e-15
0.00000000e+00
2.13162821e-14
0.00000000e+00
-8.88178420e-15
5.93303184e-13
7.10542736e-15
-1.06581410e-14
5.32907052e-15
7.10542736e-15
1.06581410e-14
-5.32907052e-15
-1.06581410e-14
0.00000000e+00
3.55271368e-15
0.00000000e+00
-3.73034936e-14
0.00000000e+00
3.37507799e-14
3.55271368e-15
2.30926389e-14
-3.55271368e-15
-2.66453526e-14
-3.55271368e-14
3.73034936e-14
0.00000000e+00
2.13162821e-14
0.00000000e+00
2.84217094e-14
-5.32907052e-15
-7.10542736e-15
6.03961325e-14
1.42108547e-14
2.13162821e-14
3.19744231e-14
0.00000000e+00
2.48689958e-14
0.00000000e+00
2.84217094e-14
2.13162821e-14
3.19744231e-14
4.26325641e-14
2.13162821e-14
4.97379915e-14
7.10542736e-15
0.00000000e+00
2.48689958e-14
0.00000000e+00
1.77635684e-14
7.10542736e-15
3.55271368e-14
2.48689958e-14
3.55271368e-14
5.68434189e-14
1.77635684e-14
0.00000000e+00
4.26325641e-14
0.00000000e+00
3.90798505e-14
-7.10542736e-15
6.39488462e-14
3.19744231e-14
1.77635684e-14
-1.77635684e-14
7.46069873e-14
0.00000000e+00
9.23705556e-14
-7.81597009e-14
4.97379915e-14
7.81597009e-14
4.97379915e-14
7.46069873e-14
-1.77635684e-13
0.00000000e+00
-1.98951966e-13
1.77635684e-13
2.48689958e-14
2.48689958e-14
-3.55271368e-14
1.88293825e-13
-5.32907052e-14
0.00000000e+00
-3.19744231e-14
1.35003120e-13
1.77635684e-14
-4.61852778e-14
1.06581410e-14
1.20792265e-13
4.26325641e-14
0.00000000e+00
3.90798505e-14
6.39488462e-14
2.84217094e-14
1.77635684e-14
3.55271368e-14
-6.03961325e-14
1.77635684e-13
0.00000000e+00
2.02504680e-13
-1.24344979e-13
6.03961325e-14
2.48689958e-14
5.68434189e-14
-8.17124146e-14
4.26325641e-14
1.35003120e-13
-1.77635684e-15
-1.59872116e-14
1.77635684e-15
2.48689958e-14
7.10542736e-15
1.24344979e-14
3.55271368e-15
1.77635684e-14
1.06581410e-14
3.73034936e-14
1.06581410e-14
3.19744231e-14
-1.59872116e-14
3.55271368e-15
-3.01980663e-14
5.32907052e-15
-2.30926389e-14
-5.32907052e-15
-2.30926389e-14
3.90798505e-14
2.48689958e-14
3.90798505e-14
1.42108547e-14
4.97379915e-14
1.77635684e-14
3.55271368e-14
1.77635684e-14
2.13162821e-14
2.84217094e-14
4.61852778e-14
1.77635684e-14
2.13162821e-14
7.10542736e-15
5.68434189e-14
2.13162821e-14
2.13162821e-14
2.84217094e-14
6.75015599e-14
3.90798505e-14
2.13162821e-14
5.32907052e-14
2.48689958e-14
1.06581410e-14
1.77635684e-14
3.90798505e-14
7.10542736e-14
2.84217094e-14
7.10542736e-15
4.61852778e-14
8.17124146e-14
2.13162821e-14
7.10542736e-15
2.48689958e-14
1.03028697e-13
4.26325641e-14
8.52651283e-14
5.32907052e-14
6.39488462e-14
5.32907052e-14
3.55271368e-14
3.55271368e-14
3.19744231e-14
2.84217094e-14
2.13162821e-14
3.55271368e-14
1.77635684e-14
3.55271368e-14
5.32907052e-14
4.61852778e-14
-3.55271368e-15
1.77635684e-14
1.06581410e-14
3.90798505e-14
-4.26325641e-14
6.75015599e-14
3.55271368e-14
4.26325641e-14
-5.32907052e-14
6.03961325e-14
2.84217094e-14
4.97379915e-14
-5.32907052e-14
2.84217094e-14
3.55271368e-15
3.55271368e-14
-4.26325641e-14
7.10542736e-15
5.32907052e-14
-5.32907052e-15
1.24344979e-14
1.77635684e-15
1.24344979e-14
1.06581410e-14
1.77635684e-14
3.55271368e-15
1.77635684e-14
1.24344979e-14
-5.32907052e-15
1.77635684e-15
4.26325641e-14
-1.06581410e-14
-2.13162821e-14
-5.32907052e-15
4.26325641e-14
-2.84217094e-14
-3.01980663e-14
-2.13162821e-14
3.55271368e-14
2.13162821e-14
3.19744231e-14
2.48689958e-14
6.03961325e-14
1.77635684e-14
7.10542736e-15
2.13162821e-14
4.97379915e-14
3.55271368e-14
1.42108547e-14
3.90798505e-14
5.68434189e-14
2.48689958e-14
3.55271368e-15
2.48689958e-14
6.39488462e-14
2.84217094e-14
2.84217094e-14
2.48689958e-14
7.81597009e-14
2.13162821e-14
1.77635684e-14
2.84217094e-14
2.13162821e-14
2.48689958e-14
2.48689958e-14
4.61852778e-14
2.13162821e-14
3.90798505e-14
1.42108547e-14
2.84217094e-14
1.77635684e-14
2.48689958e-14
3.55271368e-14
4.26325641e-14
3.90798505e-14
3.19744231e-14
2.13162821e-14
2.84217094e-14
2.13162821e-14
2.48689958e-14
4.61852778e-14
2.13162821e-14
4.61852778e-14
4.97379915e-14
2.48689958e-14
2.84217094e-14
2.48689958e-14
3.55271368e-14
3.55271368e-15
2.84217094e-14
4.97379915e-14
2.48689958e-14
0.00000000e+00
3.19744231e-14
7.10542736e-15
1.06581410e-14
3.55271368e-14
2.13162821e-14
3.55271368e-14
1.42108547e-14
4.26325641e-14
0.00000000e+00
3.19744231e-14
0.00000000e+00
3.90798505e-14
3.55271368e-15
3.55271368e-15
 
