# vtk DataFile Version 3.0 
Date: 3/21/2016   Time: 14:1
ASCII 
DATASET UNSTRUCTURED_GRID 
 
POINTS 800 float 
0.000000 0.000000 0.000000 
0.050000 0.000000 0.000000 
0.100000 0.000000 0.000000 
0.100000 0.050000 0.000000 
0.100000 0.100000 0.000000 
0.050000 0.100000 0.000000 
0.000000 0.100000 0.000000 
0.000000 0.050000 0.000000 
0.100000 0.000000 0.000000 
0.150000 0.000000 0.000000 
0.200000 0.000000 0.000000 
0.200000 0.050000 0.000000 
0.200000 0.100000 0.000000 
0.150000 0.100000 0.000000 
0.100000 0.100000 0.000000 
0.100000 0.050000 0.000000 
0.200000 0.000000 0.000000 
0.250000 0.000000 0.000000 
0.300000 0.000000 0.000000 
0.300000 0.050000 0.000000 
0.300000 0.100000 0.000000 
0.250000 0.100000 0.000000 
0.200000 0.100000 0.000000 
0.200000 0.050000 0.000000 
0.300000 0.000000 0.000000 
0.350000 0.000000 0.000000 
0.400000 0.000000 0.000000 
0.400000 0.050000 0.000000 
0.400000 0.100000 0.000000 
0.350000 0.100000 0.000000 
0.300000 0.100000 0.000000 
0.300000 0.050000 0.000000 
0.400000 0.000000 0.000000 
0.450000 0.000000 0.000000 
0.500000 0.000000 0.000000 
0.500000 0.050000 0.000000 
0.500000 0.100000 0.000000 
0.450000 0.100000 0.000000 
0.400000 0.100000 0.000000 
0.400000 0.050000 0.000000 
0.500000 0.000000 0.000000 
0.550000 0.000000 0.000000 
0.600000 0.000000 0.000000 
0.600000 0.050000 0.000000 
0.600000 0.100000 0.000000 
0.550000 0.100000 0.000000 
0.500000 0.100000 0.000000 
0.500000 0.050000 0.000000 
0.600000 0.000000 0.000000 
0.650000 0.000000 0.000000 
0.700000 0.000000 0.000000 
0.700000 0.050000 0.000000 
0.700000 0.100000 0.000000 
0.650000 0.100000 0.000000 
0.600000 0.100000 0.000000 
0.600000 0.050000 0.000000 
0.700000 0.000000 0.000000 
0.750000 0.000000 0.000000 
0.800000 0.000000 0.000000 
0.800000 0.050000 0.000000 
0.800000 0.100000 0.000000 
0.750000 0.100000 0.000000 
0.700000 0.100000 0.000000 
0.700000 0.050000 0.000000 
0.800000 0.000000 0.000000 
0.850000 0.000000 0.000000 
0.900000 0.000000 0.000000 
0.900000 0.050000 0.000000 
0.900000 0.100000 0.000000 
0.850000 0.100000 0.000000 
0.800000 0.100000 0.000000 
0.800000 0.050000 0.000000 
0.900000 0.000000 0.000000 
0.950000 0.000000 0.000000 
1.000000 0.000000 0.000000 
1.000000 0.050000 0.000000 
1.000000 0.100000 0.000000 
0.950000 0.100000 0.000000 
0.900000 0.100000 0.000000 
0.900000 0.050000 0.000000 
0.000000 0.100000 0.000000 
0.050000 0.100000 0.000000 
0.100000 0.100000 0.000000 
0.100000 0.150000 0.000000 
0.100000 0.200000 0.000000 
0.050000 0.200000 0.000000 
0.000000 0.200000 0.000000 
0.000000 0.150000 0.000000 
0.100000 0.100000 0.000000 
0.150000 0.100000 0.000000 
0.200000 0.100000 0.000000 
0.200000 0.150000 0.000000 
0.200000 0.200000 0.000000 
0.150000 0.200000 0.000000 
0.100000 0.200000 0.000000 
0.100000 0.150000 0.000000 
0.200000 0.100000 0.000000 
0.250000 0.100000 0.000000 
0.300000 0.100000 0.000000 
0.300000 0.150000 0.000000 
0.300000 0.200000 0.000000 
0.250000 0.200000 0.000000 
0.200000 0.200000 0.000000 
0.200000 0.150000 0.000000 
0.300000 0.100000 0.000000 
0.350000 0.100000 0.000000 
0.400000 0.100000 0.000000 
0.400000 0.150000 0.000000 
0.400000 0.200000 0.000000 
0.350000 0.200000 0.000000 
0.300000 0.200000 0.000000 
0.300000 0.150000 0.000000 
0.400000 0.100000 0.000000 
0.450000 0.100000 0.000000 
0.500000 0.100000 0.000000 
0.500000 0.150000 0.000000 
0.500000 0.200000 0.000000 
0.450000 0.200000 0.000000 
0.400000 0.200000 0.000000 
0.400000 0.150000 0.000000 
0.500000 0.100000 0.000000 
0.550000 0.100000 0.000000 
0.600000 0.100000 0.000000 
0.600000 0.150000 0.000000 
0.600000 0.200000 0.000000 
0.550000 0.200000 0.000000 
0.500000 0.200000 0.000000 
0.500000 0.150000 0.000000 
0.600000 0.100000 0.000000 
0.650000 0.100000 0.000000 
0.700000 0.100000 0.000000 
0.700000 0.150000 0.000000 
0.700000 0.200000 0.000000 
0.650000 0.200000 0.000000 
0.600000 0.200000 0.000000 
0.600000 0.150000 0.000000 
0.700000 0.100000 0.000000 
0.750000 0.100000 0.000000 
0.800000 0.100000 0.000000 
0.800000 0.150000 0.000000 
0.800000 0.200000 0.000000 
0.750000 0.200000 0.000000 
0.700000 0.200000 0.000000 
0.700000 0.150000 0.000000 
0.800000 0.100000 0.000000 
0.850000 0.100000 0.000000 
0.900000 0.100000 0.000000 
0.900000 0.150000 0.000000 
0.900000 0.200000 0.000000 
0.850000 0.200000 0.000000 
0.800000 0.200000 0.000000 
0.800000 0.150000 0.000000 
0.900000 0.100000 0.000000 
0.950000 0.100000 0.000000 
1.000000 0.100000 0.000000 
1.000000 0.150000 0.000000 
1.000000 0.200000 0.000000 
0.950000 0.200000 0.000000 
0.900000 0.200000 0.000000 
0.900000 0.150000 0.000000 
0.000000 0.200000 0.000000 
0.050000 0.200000 0.000000 
0.100000 0.200000 0.000000 
0.100000 0.250000 0.000000 
0.100000 0.300000 0.000000 
0.050000 0.300000 0.000000 
0.000000 0.300000 0.000000 
0.000000 0.250000 0.000000 
0.100000 0.200000 0.000000 
0.150000 0.200000 0.000000 
0.200000 0.200000 0.000000 
0.200000 0.250000 0.000000 
0.200000 0.300000 0.000000 
0.150000 0.300000 0.000000 
0.100000 0.300000 0.000000 
0.100000 0.250000 0.000000 
0.200000 0.200000 0.000000 
0.250000 0.200000 0.000000 
0.300000 0.200000 0.000000 
0.300000 0.250000 0.000000 
0.300000 0.300000 0.000000 
0.250000 0.300000 0.000000 
0.200000 0.300000 0.000000 
0.200000 0.250000 0.000000 
0.300000 0.200000 0.000000 
0.350000 0.200000 0.000000 
0.400000 0.200000 0.000000 
0.400000 0.250000 0.000000 
0.400000 0.300000 0.000000 
0.350000 0.300000 0.000000 
0.300000 0.300000 0.000000 
0.300000 0.250000 0.000000 
0.400000 0.200000 0.000000 
0.450000 0.200000 0.000000 
0.500000 0.200000 0.000000 
0.500000 0.250000 0.000000 
0.500000 0.300000 0.000000 
0.450000 0.300000 0.000000 
0.400000 0.300000 0.000000 
0.400000 0.250000 0.000000 
0.500000 0.200000 0.000000 
0.550000 0.200000 0.000000 
0.600000 0.200000 0.000000 
0.600000 0.250000 0.000000 
0.600000 0.300000 0.000000 
0.550000 0.300000 0.000000 
0.500000 0.300000 0.000000 
0.500000 0.250000 0.000000 
0.600000 0.200000 0.000000 
0.650000 0.200000 0.000000 
0.700000 0.200000 0.000000 
0.700000 0.250000 0.000000 
0.700000 0.300000 0.000000 
0.650000 0.300000 0.000000 
0.600000 0.300000 0.000000 
0.600000 0.250000 0.000000 
0.700000 0.200000 0.000000 
0.750000 0.200000 0.000000 
0.800000 0.200000 0.000000 
0.800000 0.250000 0.000000 
0.800000 0.300000 0.000000 
0.750000 0.300000 0.000000 
0.700000 0.300000 0.000000 
0.700000 0.250000 0.000000 
0.800000 0.200000 0.000000 
0.850000 0.200000 0.000000 
0.900000 0.200000 0.000000 
0.900000 0.250000 0.000000 
0.900000 0.300000 0.000000 
0.850000 0.300000 0.000000 
0.800000 0.300000 0.000000 
0.800000 0.250000 0.000000 
0.900000 0.200000 0.000000 
0.950000 0.200000 0.000000 
1.000000 0.200000 0.000000 
1.000000 0.250000 0.000000 
1.000000 0.300000 0.000000 
0.950000 0.300000 0.000000 
0.900000 0.300000 0.000000 
0.900000 0.250000 0.000000 
0.000000 0.300000 0.000000 
0.050000 0.300000 0.000000 
0.100000 0.300000 0.000000 
0.100000 0.350000 0.000000 
0.100000 0.400000 0.000000 
0.050000 0.400000 0.000000 
0.000000 0.400000 0.000000 
0.000000 0.350000 0.000000 
0.100000 0.300000 0.000000 
0.150000 0.300000 0.000000 
0.200000 0.300000 0.000000 
0.200000 0.350000 0.000000 
0.200000 0.400000 0.000000 
0.150000 0.400000 0.000000 
0.100000 0.400000 0.000000 
0.100000 0.350000 0.000000 
0.200000 0.300000 0.000000 
0.250000 0.300000 0.000000 
0.300000 0.300000 0.000000 
0.300000 0.350000 0.000000 
0.300000 0.400000 0.000000 
0.250000 0.400000 0.000000 
0.200000 0.400000 0.000000 
0.200000 0.350000 0.000000 
0.300000 0.300000 0.000000 
0.350000 0.300000 0.000000 
0.400000 0.300000 0.000000 
0.400000 0.350000 0.000000 
0.400000 0.400000 0.000000 
0.350000 0.400000 0.000000 
0.300000 0.400000 0.000000 
0.300000 0.350000 0.000000 
0.400000 0.300000 0.000000 
0.450000 0.300000 0.000000 
0.500000 0.300000 0.000000 
0.500000 0.350000 0.000000 
0.500000 0.400000 0.000000 
0.450000 0.400000 0.000000 
0.400000 0.400000 0.000000 
0.400000 0.350000 0.000000 
0.500000 0.300000 0.000000 
0.550000 0.300000 0.000000 
0.600000 0.300000 0.000000 
0.600000 0.350000 0.000000 
0.600000 0.400000 0.000000 
0.550000 0.400000 0.000000 
0.500000 0.400000 0.000000 
0.500000 0.350000 0.000000 
0.600000 0.300000 0.000000 
0.650000 0.300000 0.000000 
0.700000 0.300000 0.000000 
0.700000 0.350000 0.000000 
0.700000 0.400000 0.000000 
0.650000 0.400000 0.000000 
0.600000 0.400000 0.000000 
0.600000 0.350000 0.000000 
0.700000 0.300000 0.000000 
0.750000 0.300000 0.000000 
0.800000 0.300000 0.000000 
0.800000 0.350000 0.000000 
0.800000 0.400000 0.000000 
0.750000 0.400000 0.000000 
0.700000 0.400000 0.000000 
0.700000 0.350000 0.000000 
0.800000 0.300000 0.000000 
0.850000 0.300000 0.000000 
0.900000 0.300000 0.000000 
0.900000 0.350000 0.000000 
0.900000 0.400000 0.000000 
0.850000 0.400000 0.000000 
0.800000 0.400000 0.000000 
0.800000 0.350000 0.000000 
0.900000 0.300000 0.000000 
0.950000 0.300000 0.000000 
1.000000 0.300000 0.000000 
1.000000 0.350000 0.000000 
1.000000 0.400000 0.000000 
0.950000 0.400000 0.000000 
0.900000 0.400000 0.000000 
0.900000 0.350000 0.000000 
0.000000 0.400000 0.000000 
0.050000 0.400000 0.000000 
0.100000 0.400000 0.000000 
0.100000 0.450000 0.000000 
0.100000 0.500000 0.000000 
0.050000 0.500000 0.000000 
0.000000 0.500000 0.000000 
0.000000 0.450000 0.000000 
0.100000 0.400000 0.000000 
0.150000 0.400000 0.000000 
0.200000 0.400000 0.000000 
0.200000 0.450000 0.000000 
0.200000 0.500000 0.000000 
0.150000 0.500000 0.000000 
0.100000 0.500000 0.000000 
0.100000 0.450000 0.000000 
0.200000 0.400000 0.000000 
0.250000 0.400000 0.000000 
0.300000 0.400000 0.000000 
0.300000 0.450000 0.000000 
0.300000 0.500000 0.000000 
0.250000 0.500000 0.000000 
0.200000 0.500000 0.000000 
0.200000 0.450000 0.000000 
0.300000 0.400000 0.000000 
0.350000 0.400000 0.000000 
0.400000 0.400000 0.000000 
0.400000 0.450000 0.000000 
0.400000 0.500000 0.000000 
0.350000 0.500000 0.000000 
0.300000 0.500000 0.000000 
0.300000 0.450000 0.000000 
0.400000 0.400000 0.000000 
[...]
CELL_DATA 100
FIELD FieldData 1
material 1 100 int
1
1
1
1
1
1
1
1
1
1
1
1
1
1
1
1
1
1
1
1
1
1
1
1
1
1
1
1
1
1
1
1
1
1
1
1
1
1
1
1
1
1
1
1
1
1
1
1
1
1
1
1
1
1
1
1
1
1
1
1
1
1
1
1
1
1
1
1
1
1
1
1
1
1
1
1
1
1
1
1
1
1
1
1
1
1
1
1
1
1
1
1
1
1
1
1
1
1
1
1
POINT_DATA 800 SCALARS flux_g1 double 
LOOKUP_TABLE   default 
6.28501626e+00
6.60324499e+00
6.97711218e+00
7.32291814e+00
7.73239949e+00
7.32291814e+00
6.97711218e+00
6.60324499e+00
6.97694679e+00
7.35711436e+00
7.79350277e+00
8.17139728e+00
8.61162170e+00
8.13959215e+00
7.73223671e+00
7.32331694e+00
7.79348636e+00
8.23659678e+00
8.73586880e+00
9.14526035e+00
9.61670871e+00
9.08176894e+00
8.61160014e+00
8.17145462e+00
8.73586213e+00
9.24184990e+00
9.80395443e+00
1.02448001e+01
1.07476187e+01
1.01497848e+01
9.61670428e+00
9.14527625e+00
9.80395264e+00
1.03727879e+01
1.09977464e+01
1.14700137e+01
1.20042466e+01
1.13435798e+01
1.07476196e+01
1.02448014e+01
1.09977464e+01
1.16294249e+01
1.23172268e+01
1.28209074e+01
1.33865574e+01
1.26630487e+01
1.20042466e+01
1.14700137e+01
1.23172285e+01
1.30117611e+01
1.37624104e+01
1.42974882e+01
1.48945799e+01
1.41081915e+01
1.33865565e+01
1.28209061e+01
1.37624170e+01
1.45197821e+01
1.53333087e+01
1.58997725e+01
1.65284136e+01
1.56791135e+01
1.48945844e+01
1.42974723e+01
1.53333251e+01
1.61535738e+01
1.70300433e+01
1.76277408e+01
1.82879880e+01
1.73758745e+01
1.65284352e+01
1.58997152e+01
1.70302087e+01
1.79129785e+01
1.88513869e+01
1.94837749e+01
2.01718013e+01
1.91981384e+01
1.82881508e+01
1.76273420e+01
6.97694679e+00
7.32331694e+00
7.73223671e+00
8.13959215e+00
8.61162170e+00
8.17139728e+00
7.79350277e+00
7.35711436e+00
7.73208428e+00
8.13990435e+00
8.61144060e+00
9.05082457e+00
9.55353449e+00
9.05082457e+00
8.61144060e+00
8.13990435e+00
8.61142265e+00
9.08216045e+00
9.61656853e+00
1.00875743e+01
1.06214278e+01
1.00557918e+01
9.55351264e+00
9.05087323e+00
9.61655996e+00
1.01501548e+01
1.07474600e+01
1.12498460e+01
1.18152040e+01
1.11867385e+01
1.06214232e+01
1.00875753e+01
1.07474620e+01
1.13439330e+01
1.20040809e+01
1.25378560e+01
1.31346617e+01
1.24433479e+01
1.18152042e+01
1.12498399e+01
1.20040809e+01
1.26634019e+01
1.33863998e+01
1.39516096e+01
1.45798058e+01
1.38256487e+01
1.31346617e+01
1.25378560e+01
1.33863978e+01
1.41085615e+01
1.48944356e+01
1.54911146e+01
1.61506263e+01
1.53336408e+01
1.45798056e+01
1.39516157e+01
1.48944442e+01
1.56795050e+01
1.65282361e+01
1.71561823e+01
1.78473172e+01
1.69672956e+01
1.61506309e+01
1.54911137e+01
1.65282541e+01
1.73761868e+01
1.82878356e+01
1.89469831e+01
1.96698467e+01
1.87269299e+01
1.78473391e+01
1.71561336e+01
1.82879880e+01
1.91985372e+01
2.01716359e+01
2.08659628e+01
2.16165104e+01
2.06121042e+01
1.96700278e+01
1.89466709e+01
7.79348636e+00
8.17145462e+00
8.61160014e+00
9.08176894e+00
9.61670871e+00
9.14526035e+00
8.73586880e+00
8.23659678e+00
8.61142265e+00
9.05087323e+00
9.55351264e+00
1.00557918e+01
1.06214278e+01
1.00875743e+01
9.61656853e+00
9.08216045e+00
9.55346447e+00
1.00559368e+01
1.06213750e+01
1.11553892e+01
1.17521883e+01
1.11553892e+01
1.06213750e+01
1.00559368e+01
1.06213792e+01
1.11868227e+01
1.18151620e+01
1.23805347e+01
1.30087720e+01
1.23490798e+01
1.17521881e+01
1.11553712e+01
1.18151648e+01
1.24434383e+01
1.31346215e+01
1.37313790e+01
1.43910713e+01
1.36685329e+01
1.30087742e+01
1.23805278e+01
1.31346215e+01
1.38257391e+01
1.45797663e+01
1.52079612e+01
1.58990394e+01
1.51136655e+01
1.43910713e+01
1.37313790e+01
1.45797636e+01
1.53337250e+01
1.61505823e+01
1.68102380e+01
1.75327186e+01
1.66844777e+01
1.58990372e+01
1.52079681e+01
1.61505780e+01
1.69674406e+01
1.78472691e+01
1.85382369e+01
1.92921707e+01
1.83810523e+01
1.75327188e+01
1.68102560e+01
1.78473172e+01
1.87269786e+01
1.96698288e+01
2.03918940e+01
2.11776295e+01
2.02035027e+01
1.92922236e+01
1.85380919e+01
1.96700063e+01
2.06121615e+01
2.16164940e+01
2.23737637e+01
2.31871950e+01
2.21514539e+01
2.11777697e+01
2.03915025e+01
8.73586213e+00
9.14527625e+00
9.61670428e+00
1.01497848e+01
1.07476187e+01
1.02448001e+01
9.80395443e+00
9.24184990e+00
9.61655996e+00
1.00875753e+01
1.06214232e+01
1.11867385e+01
1.18152040e+01
1.12498460e+01
1.07474600e+01
1.01501548e+01
1.06213792e+01
1.11553712e+01
1.17521881e+01
1.23490798e+01
1.30087720e+01
1.23805347e+01
1.18151620e+01
1.11868227e+01
1.17521831e+01
1.23490824e+01
1.30087667e+01
1.36370391e+01
1.43281611e+01
1.36370391e+01
1.30087667e+01
1.23490824e+01
1.30087702e+01
1.36685316e+01
1.43910712e+01
1.50507485e+01
1.57732619e+01
1.50192905e+01
1.43281660e+01
1.36370287e+01
1.43910712e+01
1.51136642e+01
1.58990355e+01
1.65901258e+01
1.73440949e+01
1.65272549e+01
1.57732619e+01
1.50507485e+01
1.58990319e+01
1.66844802e+01
1.75327135e+01
1.82552766e+01
1.90406246e+01
1.81609325e+01
1.73440900e+01
1.65901362e+01
1.75327186e+01
1.83810343e+01
1.92921749e+01
2.00461140e+01
2.08629489e+01
1.99203571e+01
1.90406299e+01
1.82552740e+01
1.92922189e+01
2.02035036e+01
2.11776209e+01
2.19625432e+01
2.28111758e+01
2.18055973e+01
2.08629909e+01
2.00460298e+01
2.11777652e+01
2.21514698e+01
2.31871883e+01
2.40073354e+01
2.48835992e+01
2.38164803e+01
2.28113344e+01
2.19621732e+01
9.80395264e+00
1.02448014e+01
1.07476196e+01
1.13435798e+01
1.20042466e+01
1.14700137e+01
1.09977464e+01
1.03727879e+01
1.07474620e+01
1.12498399e+01
1.18152042e+01
1.24433479e+01
1.31346617e+01
1.25378560e+01
1.20040809e+01
1.13439330e+01
1.18151648e+01
1.23805278e+01
1.30087742e+01
1.36685329e+01
1.43910713e+01
1.37313790e+01
1.31346215e+01
1.24434383e+01
1.30087702e+01
1.36370287e+01
1.43281660e+01
1.50192905e+01
1.57732619e+01
1.50507485e+01
1.43910712e+01
1.36685316e+01
1.43281685e+01
1.50192883e+01
1.57732622e+01
1.64957773e+01
1.72811949e+01
1.64957773e+01
1.57732622e+01
1.50192883e+01
1.57732622e+01
1.65272528e+01
1.73440975e+01
1.80980491e+01
1.89148548e+01
1.80665736e+01
1.72811949e+01
1.64957773e+01
1.73440949e+01
1.81609222e+01
1.90406281e+01
1.98260532e+01
2.06742565e+01
1.97631374e+01
1.89148546e+01
1.80980513e+01
1.90406321e+01
1.99203502e+01
2.08629516e+01
2.16797207e+01
2.25593994e+01
2.15853606e+01
2.06742566e+01
1.98260545e+01
2.08629911e+01
2.18055912e+01
2.28111778e+01
2.36589762e+01
2.45704515e+01
2.35334303e+01
2.25594396e+01
2.16796303e+01
2.28113354e+01
2.38164817e+01
2.48835974e+01
2.57665919e+01
2.67057096e+01
2.56071807e+01
2.45706172e+01
2.36586230e+01
1.09977464e+01
1.14700137e+01
1.20042466e+01
1.26630487e+01
1.33865574e+01
1.28209074e+01
1.23172268e+01
1.16294249e+01
1.20040809e+01
1.25378560e+01
1.31346617e+01
1.38256487e+01
1.45798058e+01
1.39516096e+01
1.33863998e+01
1.26634019e+01
1.31346215e+01
1.37313790e+01
1.43910713e+01
1.51136655e+01
1.58990394e+01
1.52079612e+01
1.45797663e+01
1.38257391e+01
1.43910712e+01
1.50507485e+01
1.57732619e+01
1.65272549e+01
1.73440949e+01
1.65901258e+01
1.58990355e+01
1.51136642e+01
1.57732622e+01
1.64957773e+01
1.72811949e+01
1.80665736e+01
1.89148548e+01
1.80980491e+01
1.73440975e+01
1.65272528e+01
1.72811949e+01
1.80665736e+01
1.89148548e+01
1.97316773e+01
2.06113539e+01
1.97316773e+01
1.89148548e+01
1.80665736e+01
1.89148546e+01
1.97631374e+01
2.06742565e+01
2.15225132e+01
2.24335482e+01
2.14910104e+01
2.06113513e+01
1.97316795e+01
2.06742566e+01
2.15853606e+01
2.25593994e+01
2.34390126e+01
2.43815354e+01
2.33761021e+01
2.24335521e+01
2.15225145e+01
2.25594396e+01
2.35334303e+01
2.45704515e+01
2.54810999e+01
2.64554253e+01
2.53870068e+01
2.43815749e+01
2.34389222e+01
2.45706172e+01
2.56071807e+01
2.67057096e+01
2.76515475e+01
2.86535086e+01
2.75235610e+01
2.64555829e+01
2.54807467e+01
1.23172285e+01
1.28209061e+01
1.33865565e+01
1.41081915e+01
1.48945799e+01
1.42974882e+01
1.37624104e+01
1.30117611e+01
1.33863978e+01
1.39516157e+01
1.45798056e+01
1.53336408e+01
1.61506263e+01
1.54911146e+01
1.48944356e+01
1.41085615e+01
1.45797636e+01
1.52079681e+01
1.58990372e+01
1.66844777e+01
1.75327186e+01
1.68102380e+01
1.61505823e+01
1.53337250e+01
1.58990319e+01
1.65901362e+01
1.73440900e+01
1.81609325e+01
1.90406246e+01
1.82552766e+01
1.75327135e+01
1.66844802e+01
1.73440949e+01
1.80980513e+01
1.89148546e+01
1.97631374e+01
2.06742565e+01
1.98260532e+01
1.90406281e+01
1.81609222e+01
1.89148546e+01
1.97316795e+01
2.06113513e+01
2.14910104e+01
2.24335482e+01
2.15225132e+01
2.06742565e+01
1.97631374e+01
2.06113464e+01
2.14910207e+01
2.24335446e+01
2.33446567e+01
2.43185537e+01
2.33446567e+01
2.24335446e+01
2.14910207e+01
2.24335499e+01
2.33761090e+01
2.43815327e+01
2.53239896e+01
2.63293425e+01
2.52925381e+01
2.43185588e+01
2.33446541e+01
2.43815746e+01
2.53870130e+01
2.64554233e+01
2.74289144e+01
2.84661159e+01
2.73663348e+01
2.63293865e+01
2.53239054e+01
2.64555819e+01
2.75235597e+01
2.86535103e+01
2.96622022e+01
3.07270107e+01
2.95656285e+01
2.84662602e+01
2.74285444e+01
1.37624170e+01
1.42974723e+01
1.48945844e+01
1.56791135e+01
1.65284136e+01
1.58997725e+01
1.53333087e+01
1.45197821e+01
1.48944442e+01
1.54911137e+01
1.61506309e+01
1.69672956e+01
1.78473172e+01
1.71561823e+01
1.65282361e+01
1.56795050e+01
1.61505780e+01
1.68102560e+01
1.75327188e+01
1.83810523e+01
1.92921707e+01
1.85382369e+01
1.78472691e+01
1.69674406e+01
1.75327186e+01
1.82552740e+01
1.90406299e+01
1.99203571e+01
2.08629489e+01
2.00461140e+01
1.92921749e+01
1.83810343e+01
1.90406321e+01
1.98260545e+01
2.06742566e+01
2.15853606e+01
2.25593994e+01
2.16797207e+01
2.08629516e+01
1.99203502e+01
2.06742566e+01
2.15225145e+01
2.24335521e+01
2.33761021e+01
2.43815354e+01
2.34390126e+01
2.25593994e+01
2.15853606e+01
2.24335499e+01
2.33446541e+01
2.43185588e+01
2.52925381e+01
2.63293425e+01
2.53239896e+01
2.43815327e+01
2.33761090e+01
2.43185589e+01
2.52925561e+01
2.63293382e+01
2.73346963e+01
2.84030204e+01
2.73346963e+01
2.63293382e+01
2.52925561e+01
2.63293911e+01
2.73663339e+01
2.84661245e+01
2.95025127e+01
3.06025712e+01
2.94712255e+01
2.84030686e+01
2.73345514e+01
2.84662646e+01
2.95656126e+01
3.07270174e+01
3.17985417e+01
3.29262276e+01
3.17333995e+01
3.06027487e+01
2.95021212e+01
1.53333251e+01
1.58997152e+01
1.65284352e+01
1.73758745e+01
1.82879880e+01
1.76277408e+01
1.70300433e+01
1.61535738e+01
1.65282541e+01
1.71561336e+01
1.78473391e+01
1.87269299e+01
1.96698467e+01
1.89469831e+01
1.82878356e+01
1.73761868e+01
1.78473172e+01
1.85380919e+01
1.92922236e+01
2.02035027e+01
2.11776295e+01
2.03918940e+01
1.96698288e+01
1.87269786e+01
1.92922189e+01
2.00460298e+01
2.08629909e+01
2.18055973e+01
2.28111758e+01
2.19625432e+01
2.11776209e+01
2.02035036e+01
2.08629911e+01
2.16796303e+01
2.25594396e+01
2.35334303e+01
2.45704515e+01
2.36589762e+01
2.28111778e+01
2.18055912e+01
2.25594396e+01
2.34389222e+01
2.43815749e+01
2.53870068e+01
2.64554253e+01
2.54810999e+01
2.45704515e+01
2.35334303e+01
2.43815746e+01
2.53239054e+01
2.63293865e+01
2.73663348e+01
2.84661159e+01
2.74289144e+01
2.64554233e+01
2.53870130e+01
2.63293911e+01
2.73345514e+01
2.84030686e+01
2.94712255e+01
3.06025712e+01
2.95025127e+01
2.84661245e+01
2.73663339e+01
2.84030904e+01
2.94711768e+01
3.06025892e+01
3.17018493e+01
3.28648255e+01
3.17018493e+01
3.06025892e+01
2.94711768e+01
3.06027703e+01
3.17333422e+01
3.29262440e+01
3.40606519e+01
3.52512807e+01
3.40268545e+01
3.28649779e+01
3.17015370e+01
1.70302087e+01
1.76273420e+01
1.82881508e+01
1.91981384e+01
2.01718013e+01
1.94837749e+01
1.88513869e+01
1.79129785e+01
1.82879880e+01
1.89466709e+01
1.96700278e+01
2.06121042e+01
2.16165104e+01
2.08659628e+01
2.01716359e+01
1.91985372e+01
1.96700063e+01
2.03915025e+01
2.11777697e+01
2.21514539e+01
2.31871950e+01
2.23737637e+01
2.16164940e+01
2.06121615e+01
2.11777652e+01
2.19621732e+01
2.28113344e+01
2.38164803e+01
2.48835992e+01
2.40073354e+01
2.31871883e+01
2.21514698e+01
2.28113354e+01
2.36586230e+01
2.45706172e+01
2.56071807e+01
2.67057096e+01
2.57665919e+01
2.48835974e+01
2.38164817e+01
2.45706172e+01
2.54807467e+01
2.64555829e+01
2.75235610e+01
2.86535086e+01
2.76515475e+01
2.67057096e+01
2.56071807e+01
2.64555819e+01
2.74285444e+01
2.84662602e+01
2.95656285e+01
3.07270107e+01
2.96622022e+01
2.86535103e+01
2.75235597e+01
2.84662646e+01
2.95021212e+01
3.06027487e+01
3.17333995e+01
3.29262276e+01
3.17985417e+01
3.07270174e+01
2.95656126e+01
3.06027703e+01
3.17015370e+01
3.28649779e+01
3.40268545e+01
3.52512807e+01
3.40606519e+01
3.29262440e+01
3.17333422e+01
3.28651407e+01
3.40264557e+01
3.52514461e+01
3.64483752e+01
3.77009428e+01
3.64483752e+01
3.52514461e+01
3.40264557e+01
 
