# vtk DataFile Version 3.0 
Date: 3/21/2016   Time: 14:2
ASCII 
DATASET UNSTRUCTURED_GRID 
 
POINTS 1072 float 
0.000000 0.000000 0.000000 
0.025000 0.000000 0.000000 
0.050000 0.000000 0.000000 
0.050000 0.002500 0.000000 
0.050000 0.005000 0.000000 
0.025000 0.005000 0.000000 
0.000000 0.005000 0.000000 
0.000000 0.002500 0.000000 
0.000000 0.005000 0.000000 
0.025000 0.005000 0.000000 
0.050000 0.005000 0.000000 
0.050000 0.010000 0.000000 
0.050000 0.015000 0.000000 
0.025000 0.015000 0.000000 
0.000000 0.015000 0.000000 
0.000000 0.010000 0.000000 
0.000000 0.015000 0.000000 
0.025000 0.015000 0.000000 
0.050000 0.015000 0.000000 
0.050000 0.020000 0.000000 
0.050000 0.025000 0.000000 
0.025000 0.025000 0.000000 
0.000000 0.025000 0.000000 
0.000000 0.020000 0.000000 
0.000000 0.025000 0.000000 
0.025000 0.025000 0.000000 
0.050000 0.025000 0.000000 
0.050000 0.030000 0.000000 
0.050000 0.035000 0.000000 
0.025000 0.035000 0.000000 
0.000000 0.035000 0.000000 
0.000000 0.030000 0.000000 
0.000000 0.035000 0.000000 
0.025000 0.035000 0.000000 
0.050000 0.035000 0.000000 
0.050000 0.040000 0.000000 
0.050000 0.045000 0.000000 
0.025000 0.045000 0.000000 
0.000000 0.045000 0.000000 
0.000000 0.040000 0.000000 
0.000000 0.045000 0.000000 
0.025000 0.045000 0.000000 
0.050000 0.045000 0.000000 
0.050000 0.095000 0.000000 
0.050000 0.145000 0.000000 
0.025000 0.145000 0.000000 
0.000000 0.145000 0.000000 
0.000000 0.095000 0.000000 
0.000000 0.145000 0.000000 
0.025000 0.145000 0.000000 
0.050000 0.145000 0.000000 
0.050000 0.240000 0.000000 
0.050000 0.335000 0.000000 
0.025000 0.335000 0.000000 
0.000000 0.335000 0.000000 
0.000000 0.240000 0.000000 
0.000000 0.335000 0.000000 
0.025000 0.335000 0.000000 
0.050000 0.335000 0.000000 
0.050000 0.430000 0.000000 
0.050000 0.525000 0.000000 
0.025000 0.525000 0.000000 
0.000000 0.525000 0.000000 
0.000000 0.430000 0.000000 
0.000000 0.525000 0.000000 
0.025000 0.525000 0.000000 
0.050000 0.525000 0.000000 
0.050000 0.620000 0.000000 
0.050000 0.715000 0.000000 
0.025000 0.715000 0.000000 
0.000000 0.715000 0.000000 
0.000000 0.620000 0.000000 
0.000000 0.715000 0.000000 
0.025000 0.715000 0.000000 
0.050000 0.715000 0.000000 
0.050000 0.810000 0.000000 
0.050000 0.905000 0.000000 
0.025000 0.905000 0.000000 
0.000000 0.905000 0.000000 
0.000000 0.810000 0.000000 
0.000000 0.905000 0.000000 
0.025000 0.905000 0.000000 
0.050000 0.905000 0.000000 
0.050000 0.952500 0.000000 
0.050000 1.000000 0.000000 
0.025000 1.000000 0.000000 
0.000000 1.000000 0.000000 
0.000000 0.952500 0.000000 
0.050000 0.000000 0.000000 
0.100000 0.000000 0.000000 
0.150000 0.000000 0.000000 
0.150000 0.002500 0.000000 
0.150000 0.005000 0.000000 
0.100000 0.005000 0.000000 
0.050000 0.005000 0.000000 
0.050000 0.002500 0.000000 
0.050000 0.005000 0.000000 
0.100000 0.005000 0.000000 
0.150000 0.005000 0.000000 
0.150000 0.010000 0.000000 
0.150000 0.015000 0.000000 
0.100000 0.015000 0.000000 
0.050000 0.015000 0.000000 
0.050000 0.010000 0.000000 
0.050000 0.015000 0.000000 
0.100000 0.015000 0.000000 
0.150000 0.015000 0.000000 
0.150000 0.020000 0.000000 
0.150000 0.025000 0.000000 
0.100000 0.025000 0.000000 
0.050000 0.025000 0.000000 
0.050000 0.020000 0.000000 
0.050000 0.025000 0.000000 
0.100000 0.025000 0.000000 
0.150000 0.025000 0.000000 
0.150000 0.030000 0.000000 
0.150000 0.035000 0.000000 
0.100000 0.035000 0.000000 
0.050000 0.035000 0.000000 
0.050000 0.030000 0.000000 
0.050000 0.035000 0.000000 
0.100000 0.035000 0.000000 
0.150000 0.035000 0.000000 
0.150000 0.040000 0.000000 
0.150000 0.045000 0.000000 
0.100000 0.045000 0.000000 
0.050000 0.045000 0.000000 
0.050000 0.040000 0.000000 
0.050000 0.045000 0.000000 
0.100000 0.045000 0.000000 
0.150000 0.045000 0.000000 
0.150000 0.095000 0.000000 
0.150000 0.145000 0.000000 
0.100000 0.145000 0.000000 
0.050000 0.145000 0.000000 
0.050000 0.095000 0.000000 
0.050000 0.145000 0.000000 
0.100000 0.145000 0.000000 
0.150000 0.145000 0.000000 
0.150000 0.240000 0.000000 
0.150000 0.335000 0.000000 
0.100000 0.335000 0.000000 
0.050000 0.335000 0.000000 
0.050000 0.240000 0.000000 
0.050000 0.335000 0.000000 
0.100000 0.335000 0.000000 
0.150000 0.335000 0.000000 
0.150000 0.430000 0.000000 
0.150000 0.525000 0.000000 
0.100000 0.525000 0.000000 
0.050000 0.525000 0.000000 
0.050000 0.430000 0.000000 
0.050000 0.525000 0.000000 
0.100000 0.525000 0.000000 
0.150000 0.525000 0.000000 
0.150000 0.620000 0.000000 
0.150000 0.715000 0.000000 
0.100000 0.715000 0.000000 
0.050000 0.715000 0.000000 
0.050000 0.620000 0.000000 
0.050000 0.715000 0.000000 
0.100000 0.715000 0.000000 
0.150000 0.715000 0.000000 
0.150000 0.810000 0.000000 
0.150000 0.905000 0.000000 
0.100000 0.905000 0.000000 
0.050000 0.905000 0.000000 
0.050000 0.810000 0.000000 
0.050000 0.905000 0.000000 
0.100000 0.905000 0.000000 
0.150000 0.905000 0.000000 
0.150000 0.952500 0.000000 
0.150000 1.000000 0.000000 
0.100000 1.000000 0.000000 
0.050000 1.000000 0.000000 
0.050000 0.952500 0.000000 
0.150000 0.000000 0.000000 
0.212500 0.000000 0.000000 
0.275000 0.000000 0.000000 
0.275000 0.002500 0.000000 
0.275000 0.005000 0.000000 
0.212500 0.005000 0.000000 
0.150000 0.005000 0.000000 
0.150000 0.002500 0.000000 
0.150000 0.005000 0.000000 
0.212500 0.005000 0.000000 
0.275000 0.005000 0.000000 
0.275334 0.010000 0.000000 
0.275667 0.015000 0.000000 
0.212834 0.015000 0.000000 
0.150000 0.015000 0.000000 
0.150000 0.010000 0.000000 
0.150000 0.015000 0.000000 
0.212834 0.015000 0.000000 
0.275667 0.015000 0.000000 
0.276334 0.020000 0.000000 
0.277000 0.025000 0.000000 
0.213500 0.025000 0.000000 
0.150000 0.025000 0.000000 
0.150000 0.020000 0.000000 
0.150000 0.025000 0.000000 
0.213500 0.025000 0.000000 
0.277000 0.025000 0.000000 
0.278000 0.030000 0.000000 
0.279000 0.035000 0.000000 
0.214500 0.035000 0.000000 
0.150000 0.035000 0.000000 
0.150000 0.030000 0.000000 
0.150000 0.035000 0.000000 
0.214500 0.035000 0.000000 
0.279000 0.035000 0.000000 
0.280334 0.040000 0.000000 
0.281667 0.045000 0.000000 
0.215834 0.045000 0.000000 
0.150000 0.045000 0.000000 
0.150000 0.040000 0.000000 
0.150000 0.045000 0.000000 
0.215834 0.045000 0.000000 
0.281667 0.045000 0.000000 
0.290000 0.070000 0.000000 
0.298333 0.095000 0.000000 
0.275000 0.120000 0.000000 
0.251667 0.145000 0.000000 
0.200834 0.145000 0.000000 
0.150000 0.145000 0.000000 
0.150000 0.095000 0.000000 
0.150000 0.145000 0.000000 
0.200834 0.145000 0.000000 
0.251667 0.145000 0.000000 
0.275000 0.215000 0.000000 
0.298333 0.285000 0.000000 
0.275000 0.310000 0.000000 
0.251667 0.335000 0.000000 
0.200834 0.335000 0.000000 
0.150000 0.335000 0.000000 
0.150000 0.240000 0.000000 
0.150000 0.335000 0.000000 
0.200834 0.335000 0.000000 
0.251667 0.335000 0.000000 
0.275000 0.405000 0.000000 
0.298333 0.475000 0.000000 
0.275000 0.500000 0.000000 
0.251667 0.525000 0.000000 
0.200834 0.525000 0.000000 
0.150000 0.525000 0.000000 
0.150000 0.430000 0.000000 
0.150000 0.525000 0.000000 
0.200834 0.525000 0.000000 
0.251667 0.525000 0.000000 
0.275000 0.595000 0.000000 
0.298333 0.665000 0.000000 
0.275000 0.690000 0.000000 
0.251667 0.715000 0.000000 
0.200834 0.715000 0.000000 
0.150000 0.715000 0.000000 
0.150000 0.620000 0.000000 
0.150000 0.715000 0.000000 
0.200834 0.715000 0.000000 
0.251667 0.715000 0.000000 
0.275000 0.785000 0.000000 
0.298333 0.855000 0.000000 
0.275000 0.880000 0.000000 
0.251667 0.905000 0.000000 
0.200834 0.905000 0.000000 
0.150000 0.905000 0.000000 
0.150000 0.810000 0.000000 
0.150000 0.905000 0.000000 
0.200834 0.905000 0.000000 
0.251667 0.905000 0.000000 
0.260000 0.930000 0.000000 
0.268333 0.955000 0.000000 
0.269667 0.960000 0.000000 
0.271000 0.965000 0.000000 
0.272000 0.970000 0.000000 
0.273000 0.975000 0.000000 
0.273667 0.980000 0.000000 
0.274333 0.985000 0.000000 
0.274667 0.990000 0.000000 
0.275000 0.995000 0.000000 
0.275000 0.997500 0.000000 
0.275000 1.000000 0.000000 
0.212500 1.000000 0.000000 
0.150000 1.000000 0.000000 
0.150000 0.952500 0.000000 
0.279000 0.035000 0.000000 
0.278000 0.030000 0.000000 
0.277000 0.025000 0.000000 
0.276334 0.020000 0.000000 
0.275667 0.015000 0.000000 
0.275334 0.010000 0.000000 
0.275000 0.005000 0.000000 
0.275000 0.002500 0.000000 
0.275000 0.000000 0.000000 
0.337500 0.000000 0.000000 
0.400000 0.000000 0.000000 
0.400000 0.032500 0.000000 
0.400000 0.065000 0.000000 
0.380500 0.080000 0.000000 
0.361000 0.095000 0.000000 
0.329666 0.095000 0.000000 
0.298333 0.095000 0.000000 
0.290000 0.070000 0.000000 
0.281667 0.045000 0.000000 
0.280334 0.040000 0.000000 
0.251667 0.145000 0.000000 
0.275000 0.120000 0.000000 
0.298333 0.095000 0.000000 
0.329666 0.095000 0.000000 
0.361000 0.095000 0.000000 
0.391000 0.145000 0.000000 
0.421000 0.195000 0.000000 
0.389500 0.240000 0.000000 
0.358000 0.285000 0.000000 
0.328167 0.285000 0.000000 
0.298333 0.285000 0.000000 
0.275000 0.215000 0.000000 
0.251667 0.335000 0.000000 
0.275000 0.310000 0.000000 
0.298333 0.285000 0.000000 
0.328167 0.285000 0.000000 
0.358000 0.285000 0.000000 
0.382000 0.305000 0.000000 
0.406000 0.325000 0.000000 
0.399500 0.390000 0.000000 
0.393000 0.455000 0.000000 
0.379000 0.465000 0.000000 
0.365000 0.475000 0.000000 
0.331666 0.475000 0.000000 
0.298333 0.475000 0.000000 
0.275000 0.405000 0.000000 
0.251667 0.525000 0.000000 
0.275000 0.500000 0.000000 
0.298333 0.475000 0.000000 
0.331666 0.475000 0.000000 
0.365000 0.475000 0.000000 
0.392500 0.530000 0.000000 
0.420000 0.585000 0.000000 
0.388000 0.625000 0.000000 
0.356000 0.665000 0.000000 
0.327167 0.665000 0.000000 
0.298333 0.665000 0.000000 
0.275000 0.595000 0.000000 
0.251667 0.715000 0.000000 
0.275000 0.690000 0.000000 
0.298333 0.665000 0.000000 
0.327167 0.665000 0.000000 
0.356000 0.665000 0.000000 
0.367000 0.675000 0.000000 
0.378000 0.685000 0.000000 
0.392000 0.720000 0.000000 
0.406000 0.755000 0.000000 
0.395500 0.790000 0.000000 
0.385000 0.825000 0.000000 
[...]
CELL_DATA 110
FIELD FieldData 1
material 1 110 int
1
1
1
1
1
1
1
1
1
1
1
1
1
1
1
1
1
1
1
1
1
1
1
1
1
1
1
1
1
1
1
1
1
1
1
1
1
1
1
1
1
1
1
1
1
1
1
1
1
1
1
1
1
1
1
1
1
1
1
1
1
1
1
1
1
1
1
1
1
1
1
1
1
1
1
1
1
1
1
1
1
1
1
1
1
1
1
1
1
1
1
1
1
1
1
1
1
1
1
1
1
1
1
1
1
1
1
1
1
1
POINT_DATA 1072 SCALARS flux_g1 double 
LOOKUP_TABLE   default 
6.28376796e+00
6.44315702e+00
6.61468416e+00
6.63137106e+00
6.64842707e+00
6.47488829e+00
6.31543911e+00
6.29950234e+00
6.31550747e+00
6.47467171e+00
6.64859827e+00
6.68233015e+00
6.71645615e+00
6.54045503e+00
6.37970437e+00
6.34710246e+00
6.37971069e+00
6.54047437e+00
6.71646608e+00
6.75047559e+00
6.78519643e+00
6.60753004e+00
6.44533939e+00
6.41226462e+00
6.44538726e+00
6.60747895e+00
6.78520522e+00
6.81995193e+00
6.85549516e+00
6.67578516e+00
6.51210685e+00
6.47838469e+00
6.51210156e+00
6.67575060e+00
6.85550690e+00
6.89103917e+00
6.92701580e+00
6.74572624e+00
6.58049234e+00
6.54582798e+00
6.58073606e+00
6.74462924e+00
6.92684850e+00
7.28582723e+00
7.70850981e+00
7.51149430e+00
7.32919732e+00
6.92930822e+00
7.32948947e+00
7.50950016e+00
7.70744011e+00
8.51532908e+00
9.53617775e+00
9.30803418e+00
9.09638706e+00
8.12555801e+00
9.09646430e+00
9.30777312e+00
9.53629469e+00
1.05690852e+01
1.18169372e+01
1.15580211e+01
1.13170703e+01
1.01185369e+01
1.13170477e+01
1.15579480e+01
1.18168906e+01
1.30756942e+01
1.45502442e+01
1.42621319e+01
1.39912010e+01
1.25654287e+01
1.39910104e+01
1.42624799e+01
1.45500683e+01
1.60365260e+01
1.77355228e+01
1.74178235e+01
1.71185756e+01
1.54675353e+01
1.71185046e+01
1.74198908e+01
1.77366841e+01
1.85881235e+01
1.94970805e+01
1.91656815e+01
1.88509811e+01
1.79612455e+01
6.61497203e+00
6.96894487e+00
7.36944502e+00
7.38773257e+00
7.40637121e+00
7.00250346e+00
6.64849569e+00
6.63161717e+00
6.64874781e+00
7.00228359e+00
7.40661156e+00
7.44364103e+00
7.48148834e+00
7.07076365e+00
6.71630480e+00
6.68202290e+00
6.71637901e+00
7.07066933e+00
7.48160572e+00
7.51894643e+00
7.55684060e+00
7.14194758e+00
6.78498979e+00
6.75019369e+00
6.78500745e+00
7.14196460e+00
7.55685350e+00
7.59456133e+00
7.63287993e+00
7.21462182e+00
6.85523059e+00
6.81974064e+00
6.85528191e+00
7.21458369e+00
7.63290681e+00
7.67121860e+00
7.71024899e+00
7.28816634e+00
6.92672604e+00
6.89072330e+00
6.92662955e+00
7.28765616e+00
7.71050473e+00
8.09993801e+00
8.55343836e+00
8.09939949e+00
7.70846534e+00
7.28564202e+00
7.70777751e+00
8.09799369e+00
8.55311504e+00
9.41405667e+00
1.04999574e+01
9.98633796e+00
9.53662980e+00
8.51468566e+00
9.53668876e+00
9.98603673e+00
1.04998678e+01
1.15874106e+01
1.28996827e+01
1.23272530e+01
1.18175726e+01
1.05687805e+01
1.18175024e+01
1.23272073e+01
1.28995950e+01
1.42129952e+01
1.57526604e+01
1.51195607e+01
1.45506389e+01
1.30754400e+01
1.45505903e+01
1.51196612e+01
1.57528299e+01
1.72937261e+01
1.90586995e+01
1.83645606e+01
1.77358680e+01
1.60356383e+01
1.77367911e+01
1.83659050e+01
1.90594440e+01
1.99416823e+01
2.08803032e+01
2.01619928e+01
1.94971506e+01
1.85871793e+01
7.36958530e+00
7.89337845e+00
8.48906729e+00
8.50942805e+00
8.52991987e+00
7.93027642e+00
7.40642928e+00
7.38778515e+00
7.40667851e+00
7.93014652e+00
8.53015180e+00
8.57403344e+00
8.61883635e+00
8.00751402e+00
7.48136194e+00
7.44355967e+00
7.48156111e+00
8.00734895e+00
8.61899392e+00
8.66665843e+00
8.71524221e+00
8.08995348e+00
7.55671915e+00
7.51875963e+00
7.55677909e+00
8.08997343e+00
8.71529744e+00
8.76691334e+00
8.81946653e+00
8.17736457e+00
7.63285149e+00
7.59445127e+00
7.63291566e+00
8.17734287e+00
8.81954101e+00
8.87531411e+00
8.93198313e+00
8.26897174e+00
7.71029428e+00
7.67124140e+00
7.71051799e+00
8.26837518e+00
8.93234595e+00
9.23137443e+00
9.55485039e+00
9.54044032e+00
9.54122282e+00
9.01498410e+00
8.55344130e+00
8.09930341e+00
8.55316539e+00
9.01399196e+00
9.54083596e+00
1.04592300e+01
1.15574974e+01
1.15749429e+01
1.16085573e+01
1.10213488e+01
1.05003007e+01
9.41370163e+00
1.05001925e+01
1.10217345e+01
1.16083224e+01
1.27224196e+01
1.40157085e+01
1.40652981e+01
1.41304344e+01
1.34823279e+01
1.28997131e+01
1.15869832e+01
1.28995808e+01
1.34825104e+01
1.41303255e+01
1.54386852e+01
1.69254782e+01
1.70069110e+01
1.71037025e+01
1.63950250e+01
1.57529004e+01
1.42127368e+01
1.57529247e+01
1.63950444e+01
1.71036912e+01
1.86072143e+01
2.02908614e+01
2.04037020e+01
2.05322564e+01
1.97627478e+01
1.90588552e+01
1.72933651e+01
1.90593131e+01
1.97634419e+01
2.05324211e+01
2.11391741e+01
2.17693646e+01
2.18900605e+01
2.20117934e+01
2.21267189e+01
2.22448413e+01
2.23559479e+01
2.24686257e+01
2.25751091e+01
2.26820053e+01
2.27329459e+01
2.27841024e+01
2.17921874e+01
2.08799300e+01
1.99418086e+01
8.82053252e+00
8.76741728e+00
8.71603790e+00
8.66751011e+00
8.62049439e+00
8.57533510e+00
8.53036960e+00
8.51032167e+00
8.49021590e+00
9.10664371e+00
9.80495038e+00
1.00929797e+01
1.04057707e+01
1.03224590e+01
1.02457723e+01
9.88721813e+00
9.55473908e+00
9.23176236e+00
8.93282686e+00
8.87584455e+00
9.54092622e+00
9.54085166e+00
9.55474331e+00
9.88781298e+00
1.02453336e+01
1.10745297e+01
1.20273915e+01
1.21353589e+01
1.22852661e+01
1.19093650e+01
1.15576939e+01
1.04591022e+01
1.16084747e+01
1.15759696e+01
1.15575014e+01
1.19103669e+01
1.22848688e+01
1.28298539e+01
1.34104755e+01
1.41625423e+01
1.50114754e+01
1.49589636e+01
1.49111450e+01
1.44491928e+01
1.40157797e+01
1.27222956e+01
1.41303248e+01
1.40664873e+01
1.40153654e+01
1.44499219e+01
1.49110059e+01
1.60917083e+01
1.74057385e+01
1.75692631e+01
1.77659291e+01
1.73346851e+01
1.69256770e+01
1.54382422e+01
1.71037312e+01
1.70075465e+01
1.69255434e+01
1.73353518e+01
1.77657017e+01
1.80993602e+01
1.84405151e+01
1.92600508e+01
2.01269834e+01
2.05985239e+01
2.10946264e+01
2.11354883e+01
2.11831634e+01
2.07264179e+01
2.02907305e+01
1.86075438e+01
2.02906295e+01
2.07265567e+01
2.11830826e+01
2.18582805e+01
2.25611399e+01
2.32620031e+01
2.39906000e+01
2.28246303e+01
2.17687505e+01
2.11395668e+01
2.05324319e+01
2.04034649e+01
2.17686551e+01
2.28250309e+01
2.39904841e+01
2.41205150e+01
2.42514596e+01
2.30771032e+01
2.20106670e+01
2.18891954e+01
2.20106160e+01
2.30771400e+01
2.42513895e+01
2.43299024e+01
2.44089946e+01
2.32776064e+01
2.22437826e+01
2.21266754e+01
2.22436783e+01
2.32776175e+01
2.44089456e+01
2.44964979e+01
2.45848717e+01
2.34820273e+01
2.24673844e+01
2.23549962e+01
2.24672864e+01
2.34820767e+01
2.45846919e+01
2.46810880e+01
2.47785978e+01
2.36909429e+01
2.26813614e+01
2.25738986e+01
2.26811786e+01
2.36909833e+01
2.47783970e+01
2.48312460e+01
2.48844381e+01
2.37969732e+01
2.27831976e+01
2.27320646e+01
9.80486729e+00
1.03765934e+01
1.09990959e+01
1.11644337e+01
1.13393319e+01
1.13519523e+01
1.13711911e+01
1.08689908e+01
1.04060483e+01
1.00930679e+01
1.02451347e+01
1.03224397e+01
1.04058234e+01
1.08691001e+01
1.13711646e+01
1.17252553e+01
1.20999530e+01
1.24295270e+01
1.27879303e+01
1.27942949e+01
1.28038819e+01
1.24041943e+01
1.20272220e+01
1.10743036e+01
1.20272704e+01
1.24044114e+01
1.28037680e+01
1.32667597e+01
1.37578487e+01
1.40975481e+01
1.44633015e+01
1.44653109e+01
1.44674213e+01
1.39210560e+01
1.34105088e+01
1.28297205e+01
1.22849777e+01
1.21360152e+01
1.34105078e+01
1.39211959e+01
1.44674991e+01
1.53293099e+01
1.62696593e+01
1.62874901e+01
1.63142601e+01
1.56378429e+01
1.50114482e+01
1.41624634e+01
1.49109920e+01
1.49591567e+01
1.50115312e+01
1.56375707e+01
1.63142417e+01
1.72636064e+01
1.82934784e+01
1.83294670e+01
1.83746021e+01
1.78779439e+01
1.74057066e+01
1.60916767e+01
1.74057954e+01
1.78779334e+01
1.83745522e+01
1.94133529e+01
2.05307058e+01
2.05441756e+01
2.05579626e+01
1.94454577e+01
1.84405462e+01
1.80991342e+01
1.77659067e+01
1.75692352e+01
1.84405165e+01
1.94453998e+01
2.05579492e+01
2.10718719e+01
2.16117475e+01
2.08447839e+01
2.01269765e+01
1.92599831e+01
2.01269222e+01
2.08448268e+01
2.16117948e+01
2.22990039e+01
2.30139256e+01
2.30677078e+01
2.31236117e+01
2.20643973e+01
2.10944791e+01
2.05985717e+01
2.11829944e+01
2.11355700e+01
2.10944324e+01
2.20646009e+01
2.31236327e+01
2.37549264e+01
2.44146371e+01
2.34524859e+01
2.25614021e+01
2.18586771e+01
2.25613827e+01
2.34524919e+01
2.44146634e+01
2.50459073e+01
2.56964628e+01
2.58198896e+01
2.59469645e+01
2.50724799e+01
2.42515712e+01
2.41210070e+01
2.39916712e+01
2.32622687e+01
2.44094419e+01
2.43304811e+01
2.42518540e+01
2.50724605e+01
2.59470271e+01
2.63237797e+01
2.67065038e+01
2.57711790e+01
2.48847735e+01
2.48312914e+01
2.47794057e+01
2.46820135e+01
2.45853784e+01
2.44970703e+01
1.09985405e+01
1.16340121e+01
1.23184029e+01
1.23434606e+01
1.23701147e+01
1.24140941e+01
1.24588307e+01
1.24961863e+01
1.25342217e+01
1.25652167e+01
1.25965453e+01
1.19406032e+01
1.13386212e+01
1.11655952e+01
1.13385587e+01
1.19406226e+01
1.25962625e+01
1.26699018e+01
1.27447695e+01
1.31463403e+01
1.35764277e+01
1.28024928e+01
1.20996202e+01
1.17255544e+01
1.13708003e+01
1.13528554e+01
1.20995939e+01
1.28024868e+01
1.35764471e+01
1.40675274e+01
1.45856498e+01
1.45382254e+01
1.44970879e+01
1.35980087e+01
1.27877929e+01
1.24294849e+01
1.28037495e+01
1.27946998e+01
1.27877718e+01
1.35978051e+01
1.44971346e+01
1.47709173e+01
1.50689581e+01
1.43888539e+01
1.37578131e+01
1.32669251e+01
1.37577659e+01
1.43888110e+01
1.50690123e+01
1.57413993e+01
1.64613131e+01
1.54084532e+01
1.44632595e+01
1.40975362e+01
1.44674320e+01
1.44651938e+01
1.44632728e+01
1.54085112e+01
1.64613428e+01
1.67796653e+01
1.71061722e+01
1.71608282e+01
1.72487158e+01
1.67469601e+01
1.62696852e+01
1.53292824e+01
1.63142750e+01
1.62874318e+01
1.62697350e+01
1.67469705e+01
1.72486270e+01
1.85264110e+01
1.99375403e+01
1.98600412e+01
1.97867521e+01
1.90147828e+01
1.82934451e+01
1.72636064e+01
1.83745264e+01
1.83295254e+01
1.82934635e+01
1.90150550e+01
1.97866690e+01
2.07755159e+01
2.18613920e+01
2.11782749e+01
2.05307729e+01
1.94133803e+01
2.05579912e+01
2.05442926e+01
2.05306951e+01
2.11781350e+01
2.18613930e+01
2.26629055e+01
2.35004635e+01
2.37756159e+01
2.40909862e+01
2.35413573e+01
2.30139442e+01
2.22988386e+01
2.16118303e+01
2.10718837e+01
2.31237702e+01
2.30673029e+01
2.30140581e+01
2.35411402e+01
2.40909378e+01
2.56512935e+01
2.73353988e+01
2.72713321e+01
2.72133441e+01
2.64356917e+01
2.56968271e+01
2.50456081e+01
2.44149962e+01
2.37549685e+01
2.59477377e+01
2.58189865e+01
2.56968536e+01
2.64355824e+01
2.72135690e+01
2.79216062e+01
2.86544232e+01
2.76553530e+01
2.67070591e+01
2.63226182e+01
1.23180675e+01
1.31940980e+01
1.41438178e+01
1.41712246e+01
1.41988785e+01
1.32451877e+01
1.23691060e+01
1.23434152e+01
1.23693068e+01
1.32451473e+01
1.41990612e+01
1.42591553e+01
1.43201000e+01
1.33452097e+01
1.24581443e+01
1.24131687e+01
1.24583241e+01
1.33451602e+01
1.43201979e+01
1.43858281e+01
1.44525285e+01
1.34444325e+01
1.25337254e+01
1.24956140e+01
1.25337744e+01
1.34444214e+01
1.44526328e+01
1.45240212e+01
1.45964573e+01
1.35424063e+01
1.25960807e+01
1.25646380e+01
1.25961508e+01
1.35423695e+01
1.45965084e+01
1.46740095e+01
1.47524420e+01
1.36934735e+01
1.27435824e+01
1.26694097e+01
1.27436983e+01
1.36930729e+01
1.47525373e+01
1.51705408e+01
1.56105929e+01
1.55339963e+01
1.54735313e+01
1.50193352e+01
1.45857380e+01
1.40671307e+01
1.35761849e+01
1.31460748e+01
1.50690192e+01
1.47708696e+01
1.44972818e+01
1.45381437e+01
1.45858188e+01
1.50191965e+01
1.54736323e+01
1.67225882e+01
1.81509183e+01
1.81071039e+01
1.80774712e+01
1.75814485e+01
1.71059673e+01
1.67798912e+01
1.64613117e+01
1.57414671e+01
1.72486588e+01
1.71608561e+01
1.71061947e+01
1.75807818e+01
1.80776047e+01
1.95223127e+01
2.11465379e+01
2.11350708e+01
2.11363192e+01
2.05236729e+01
1.99375542e+01
1.85264426e+01
1.97866962e+01
1.98598482e+01
1.99376933e+01
2.05229438e+01
2.11367335e+01
2.27753921e+01
2.45937139e+01
2.46135791e+01
2.46474812e+01
2.40630997e+01
2.35003546e+01
2.26630389e+01
2.18613597e+01
2.07755948e+01
2.40911073e+01
2.37749597e+01
2.35007518e+01
2.40620978e+01
2.46476737e+01
2.64812247e+01
2.84951914e+01
2.85474872e+01
2.86137492e+01
2.79624480e+01
2.73355977e+01
2.56515196e+01
2.72132913e+01
2.72713514e+01
2.73360363e+01
2.79618531e+01
2.86137450e+01
2.93379553e+01
3.00862069e+01
3.02281974e+01
3.03718581e+01
3.05072384e+01
3.06443546e+01
3.07738452e+01
3.09048478e+01
3.10272454e+01
3.11498367e+01
3.12083286e+01
3.12667626e+01
2.99196950e+01
2.86545063e+01
2.79215180e+01
1.45976347e+01
1.45240646e+01
1.44536916e+01
1.43867798e+01
1.43214393e+01
1.42603657e+01
1.41997052e+01
1.41721059e+01
1.41447226e+01
1.51163030e+01
1.61675410e+01
1.67216762e+01
1.73314372e+01
1.64385844e+01
1.56105821e+01
1.51701480e+01
1.47531515e+01
1.46748746e+01
1.54737631e+01
1.55342334e+01
1.56104175e+01
1.64378903e+01
1.73309793e+01
1.85500021e+01
1.99940748e+01
1.90392130e+01
1.81508782e+01
1.67222587e+01
1.80774060e+01
1.81064684e+01
1.81508895e+01
1.90391936e+01
1.99940505e+01
2.14383999e+01
2.31097569e+01
2.20957050e+01
2.11465386e+01
1.95227556e+01
2.11366624e+01
2.11338816e+01
2.11466475e+01
2.20955225e+01
2.31098892e+01
2.47816724e+01
2.66793947e+01
2.56039551e+01
2.45935615e+01
2.27755161e+01
2.46474772e+01
2.46125525e+01
2.45937965e+01
2.56035695e+01
2.66795029e+01
2.85774168e+01
3.07013936e+01
2.95652387e+01
2.84951012e+01
2.64813526e+01
2.86138563e+01
2.85470759e+01
2.84954880e+01
2.95662308e+01
3.07016695e+01
3.18183279e+01
3.30003388e+01
3.14899756e+01
3.00857260e+01
2.93375674e+01
3.00853632e+01
3.14905722e+01
3.30001151e+01
3.31181419e+01
3.32368958e+01
3.17549957e+01
3.03708666e+01
3.02276669e+01
3.03707921e+01
3.17550174e+01
3.32368316e+01
3.33555110e+01
3.34749185e+01
3.20132015e+01
3.06436142e+01
3.05067345e+01
3.06435589e+01
3.20131815e+01
3.34748585e+01
3.35939787e+01
3.37138598e+01
3.22656750e+01
3.09033473e+01
3.07729935e+01
3.09031898e+01
3.22658401e+01
3.37136606e+01
3.38329380e+01
3.39531364e+01
3.25131090e+01
3.11496189e+01
3.10259437e+01
3.11493870e+01
3.25132389e+01
3.39528872e+01
3.40127829e+01
3.40731229e+01
3.26334206e+01
3.12656140e+01
3.12074350e+01
1.61679143e+01
1.70204001e+01
1.79263543e+01
1.85086395e+01
1.91505078e+01
1.82088253e+01
1.73315680e+01
1.67215498e+01
1.73308235e+01
1.82074810e+01
1.91495847e+01
2.04338680e+01
2.19333330e+01
2.09316076e+01
1.99939799e+01
1.85503631e+01
1.99938105e+01
2.09315071e+01
2.19333817e+01
2.34426958e+01
2.51692711e+01
2.41081797e+01
2.31097711e+01
2.14386584e+01
2.31098588e+01
2.41082254e+01
2.51693414e+01
2.69050623e+01
2.88574836e+01
2.77360352e+01
2.66790700e+01
2.47820997e+01
2.66791596e+01
2.77363365e+01
2.88574246e+01
3.08199935e+01
3.29975984e+01
3.18170182e+01
3.07013432e+01
2.85777719e+01
3.07016666e+01
3.18184240e+01
3.29982862e+01
3.41462592e+01
3.53580431e+01
3.41482733e+01
3.30003256e+01
3.18189625e+01
3.30000699e+01
3.41487835e+01
3.53581396e+01
3.54792165e+01
3.56008547e+01
3.43893601e+01
3.32368869e+01
3.31181191e+01
3.32368601e+01
3.43893983e+01
3.56008034e+01
3.57223930e+01
3.58447395e+01
3.46309003e+01
3.34749929e+01
3.33556211e+01
3.34749800e+01
3.46308833e+01
3.58447218e+01
3.59670054e+01
3.60902703e+01
3.48737643e+01
3.37139044e+01
3.35941655e+01
3.37137870e+01
3.48738586e+01
3.60901961e+01
3.62129938e+01
3.63367984e+01
3.51195378e+01
3.39530695e+01
3.38330193e+01
3.39528291e+01
3.51197577e+01
3.63365463e+01
3.63982076e+01
3.64601022e+01
3.52432788e+01
3.40729826e+01
3.40127303e+01
1.79262842e+01
1.83802833e+01
1.88509811e+01
1.94535020e+01
2.01030176e+01
1.96190056e+01
1.91504007e+01
1.85095837e+01
1.91492395e+01
1.96169383e+01
2.01030886e+01
2.14365614e+01
2.29445495e+01
2.24306208e+01
2.19328111e+01
2.04347557e+01
2.19329869e+01
2.24302728e+01
2.29447401e+01
2.45034807e+01
2.62396128e+01
2.56951149e+01
2.51686594e+01
2.34429500e+01
2.51687059e+01
2.56951880e+01
2.62396354e+01
2.80256150e+01
2.99880554e+01
2.94139661e+01
2.88570895e+01
2.69053670e+01
2.88569726e+01
2.94142272e+01
2.99879782e+01
3.20016622e+01
3.41901067e+01
3.35847192e+01
3.29972610e+01
3.08206369e+01
3.29983307e+01
3.35867133e+01
3.41898145e+01
3.53607217e+01
3.65829459e+01
3.59614409e+01
3.53582620e+01
3.41464444e+01
3.53584293e+01
3.59625379e+01
3.65827022e+01
3.67051175e+01
3.68284707e+01
3.62067215e+01
3.56010797e+01
3.54795323e+01
3.56010679e+01
3.62067561e+01
3.68284760e+01
3.69518334e+01
3.70759156e+01
3.64526092e+01
3.58449373e+01
3.57226043e+01
3.58449285e+01
3.64526602e+01
3.70758678e+01
3.71998726e+01
3.73243983e+01
3.66997638e+01
3.60903574e+01
3.59672873e+01
3.60903475e+01
3.66997445e+01
3.73243920e+01
3.74488697e+01
3.75743544e+01
3.69481205e+01
3.63366488e+01
3.62133011e+01
3.63364777e+01
3.69483370e+01
3.75742860e+01
3.76368891e+01
3.76996945e+01
3.70736854e+01
3.64598144e+01
3.63979615e+01
 
