# vtk DataFile Version 3.0 
Date: 3/21/2016   Time: 14:1
ASCII 
DATASET UNSTRUCTURED_GRID 
 
POINTS 800 float 
0.000000 0.000000 0.000000 
0.050000 0.000000 0.000000 
0.100000 0.000000 0.000000 
0.100000 0.050000 0.000000 
0.100000 0.100000 0.000000 
0.050000 0.100000 0.000000 
0.000000 0.100000 0.000000 
0.000000 0.050000 0.000000 
0.100000 0.000000 0.000000 
0.150000 0.000000 0.000000 
0.200000 0.000000 0.000000 
0.200000 0.050000 0.000000 
0.200000 0.100000 0.000000 
0.150000 0.100000 0.000000 
0.100000 0.100000 0.000000 
0.100000 0.050000 0.000000 
0.200000 0.000000 0.000000 
0.250000 0.000000 0.000000 
0.300000 0.000000 0.000000 
0.300000 0.050000 0.000000 
0.300000 0.100000 0.000000 
0.250000 0.100000 0.000000 
0.200000 0.100000 0.000000 
0.200000 0.050000 0.000000 
0.300000 0.000000 0.000000 
0.350000 0.000000 0.000000 
0.400000 0.000000 0.000000 
0.400000 0.050000 0.000000 
0.400000 0.100000 0.000000 
0.350000 0.100000 0.000000 
0.300000 0.100000 0.000000 
0.300000 0.050000 0.000000 
0.400000 0.000000 0.000000 
0.450000 0.000000 0.000000 
0.500000 0.000000 0.000000 
0.500000 0.050000 0.000000 
0.500000 0.100000 0.000000 
0.450000 0.100000 0.000000 
0.400000 0.100000 0.000000 
0.400000 0.050000 0.000000 
0.500000 0.000000 0.000000 
0.550000 0.000000 0.000000 
0.600000 0.000000 0.000000 
0.600000 0.050000 0.000000 
0.600000 0.100000 0.000000 
0.550000 0.100000 0.000000 
0.500000 0.100000 0.000000 
0.500000 0.050000 0.000000 
0.600000 0.000000 0.000000 
0.650000 0.000000 0.000000 
0.700000 0.000000 0.000000 
0.700000 0.050000 0.000000 
0.700000 0.100000 0.000000 
0.650000 0.100000 0.000000 
0.600000 0.100000 0.000000 
0.600000 0.050000 0.000000 
0.700000 0.000000 0.000000 
0.750000 0.000000 0.000000 
0.800000 0.000000 0.000000 
0.800000 0.050000 0.000000 
0.800000 0.100000 0.000000 
0.750000 0.100000 0.000000 
0.700000 0.100000 0.000000 
0.700000 0.050000 0.000000 
0.800000 0.000000 0.000000 
0.850000 0.000000 0.000000 
0.900000 0.000000 0.000000 
0.900000 0.050000 0.000000 
0.900000 0.100000 0.000000 
0.850000 0.100000 0.000000 
0.800000 0.100000 0.000000 
0.800000 0.050000 0.000000 
0.900000 0.000000 0.000000 
0.950000 0.000000 0.000000 
1.000000 0.000000 0.000000 
1.000000 0.050000 0.000000 
1.000000 0.100000 0.000000 
0.950000 0.100000 0.000000 
0.900000 0.100000 0.000000 
0.900000 0.050000 0.000000 
0.000000 0.100000 0.000000 
0.050000 0.100000 0.000000 
0.100000 0.100000 0.000000 
0.100000 0.150000 0.000000 
0.100000 0.200000 0.000000 
0.050000 0.200000 0.000000 
0.000000 0.200000 0.000000 
0.000000 0.150000 0.000000 
0.100000 0.100000 0.000000 
0.150000 0.100000 0.000000 
0.200000 0.100000 0.000000 
0.200000 0.150000 0.000000 
0.200000 0.200000 0.000000 
0.150000 0.200000 0.000000 
0.100000 0.200000 0.000000 
0.100000 0.150000 0.000000 
0.200000 0.100000 0.000000 
0.250000 0.100000 0.000000 
0.300000 0.100000 0.000000 
0.300000 0.150000 0.000000 
0.300000 0.200000 0.000000 
0.250000 0.200000 0.000000 
0.200000 0.200000 0.000000 
0.200000 0.150000 0.000000 
0.300000 0.100000 0.000000 
0.350000 0.100000 0.000000 
0.400000 0.100000 0.000000 
0.400000 0.150000 0.000000 
0.400000 0.200000 0.000000 
0.350000 0.200000 0.000000 
0.300000 0.200000 0.000000 
0.300000 0.150000 0.000000 
0.400000 0.100000 0.000000 
0.450000 0.100000 0.000000 
0.500000 0.100000 0.000000 
0.500000 0.150000 0.000000 
0.500000 0.200000 0.000000 
0.450000 0.200000 0.000000 
0.400000 0.200000 0.000000 
0.400000 0.150000 0.000000 
0.500000 0.100000 0.000000 
0.550000 0.100000 0.000000 
0.600000 0.100000 0.000000 
0.600000 0.150000 0.000000 
0.600000 0.200000 0.000000 
0.550000 0.200000 0.000000 
0.500000 0.200000 0.000000 
0.500000 0.150000 0.000000 
0.600000 0.100000 0.000000 
0.650000 0.100000 0.000000 
0.700000 0.100000 0.000000 
0.700000 0.150000 0.000000 
0.700000 0.200000 0.000000 
0.650000 0.200000 0.000000 
0.600000 0.200000 0.000000 
0.600000 0.150000 0.000000 
0.700000 0.100000 0.000000 
0.750000 0.100000 0.000000 
0.800000 0.100000 0.000000 
0.800000 0.150000 0.000000 
0.800000 0.200000 0.000000 
0.750000 0.200000 0.000000 
0.700000 0.200000 0.000000 
0.700000 0.150000 0.000000 
0.800000 0.100000 0.000000 
0.850000 0.100000 0.000000 
0.900000 0.100000 0.000000 
0.900000 0.150000 0.000000 
0.900000 0.200000 0.000000 
0.850000 0.200000 0.000000 
0.800000 0.200000 0.000000 
0.800000 0.150000 0.000000 
0.900000 0.100000 0.000000 
0.950000 0.100000 0.000000 
1.000000 0.100000 0.000000 
1.000000 0.150000 0.000000 
1.000000 0.200000 0.000000 
0.950000 0.200000 0.000000 
0.900000 0.200000 0.000000 
0.900000 0.150000 0.000000 
0.000000 0.200000 0.000000 
0.050000 0.200000 0.000000 
0.100000 0.200000 0.000000 
0.100000 0.250000 0.000000 
0.100000 0.300000 0.000000 
0.050000 0.300000 0.000000 
0.000000 0.300000 0.000000 
0.000000 0.250000 0.000000 
0.100000 0.200000 0.000000 
0.150000 0.200000 0.000000 
0.200000 0.200000 0.000000 
0.200000 0.250000 0.000000 
0.200000 0.300000 0.000000 
0.150000 0.300000 0.000000 
0.100000 0.300000 0.000000 
0.100000 0.250000 0.000000 
0.200000 0.200000 0.000000 
0.250000 0.200000 0.000000 
0.300000 0.200000 0.000000 
0.300000 0.250000 0.000000 
0.300000 0.300000 0.000000 
0.250000 0.300000 0.000000 
0.200000 0.300000 0.000000 
0.200000 0.250000 0.000000 
0.300000 0.200000 0.000000 
0.350000 0.200000 0.000000 
0.400000 0.200000 0.000000 
0.400000 0.250000 0.000000 
0.400000 0.300000 0.000000 
0.350000 0.300000 0.000000 
0.300000 0.300000 0.000000 
0.300000 0.250000 0.000000 
0.400000 0.200000 0.000000 
0.450000 0.200000 0.000000 
0.500000 0.200000 0.000000 
0.500000 0.250000 0.000000 
0.500000 0.300000 0.000000 
0.450000 0.300000 0.000000 
0.400000 0.300000 0.000000 
0.400000 0.250000 0.000000 
0.500000 0.200000 0.000000 
0.550000 0.200000 0.000000 
0.600000 0.200000 0.000000 
0.600000 0.250000 0.000000 
0.600000 0.300000 0.000000 
0.550000 0.300000 0.000000 
0.500000 0.300000 0.000000 
0.500000 0.250000 0.000000 
0.600000 0.200000 0.000000 
0.650000 0.200000 0.000000 
0.700000 0.200000 0.000000 
0.700000 0.250000 0.000000 
0.700000 0.300000 0.000000 
0.650000 0.300000 0.000000 
0.600000 0.300000 0.000000 
0.600000 0.250000 0.000000 
0.700000 0.200000 0.000000 
0.750000 0.200000 0.000000 
0.800000 0.200000 0.000000 
0.800000 0.250000 0.000000 
0.800000 0.300000 0.000000 
0.750000 0.300000 0.000000 
0.700000 0.300000 0.000000 
0.700000 0.250000 0.000000 
0.800000 0.200000 0.000000 
0.850000 0.200000 0.000000 
0.900000 0.200000 0.000000 
0.900000 0.250000 0.000000 
0.900000 0.300000 0.000000 
0.850000 0.300000 0.000000 
0.800000 0.300000 0.000000 
0.800000 0.250000 0.000000 
0.900000 0.200000 0.000000 
0.950000 0.200000 0.000000 
1.000000 0.200000 0.000000 
1.000000 0.250000 0.000000 
1.000000 0.300000 0.000000 
0.950000 0.300000 0.000000 
0.900000 0.300000 0.000000 
0.900000 0.250000 0.000000 
0.000000 0.300000 0.000000 
0.050000 0.300000 0.000000 
0.100000 0.300000 0.000000 
0.100000 0.350000 0.000000 
0.100000 0.400000 0.000000 
0.050000 0.400000 0.000000 
0.000000 0.400000 0.000000 
0.000000 0.350000 0.000000 
0.100000 0.300000 0.000000 
0.150000 0.300000 0.000000 
0.200000 0.300000 0.000000 
0.200000 0.350000 0.000000 
0.200000 0.400000 0.000000 
0.150000 0.400000 0.000000 
0.100000 0.400000 0.000000 
0.100000 0.350000 0.000000 
0.200000 0.300000 0.000000 
0.250000 0.300000 0.000000 
0.300000 0.300000 0.000000 
0.300000 0.350000 0.000000 
0.300000 0.400000 0.000000 
0.250000 0.400000 0.000000 
0.200000 0.400000 0.000000 
0.200000 0.350000 0.000000 
0.300000 0.300000 0.000000 
0.350000 0.300000 0.000000 
0.400000 0.300000 0.000000 
0.400000 0.350000 0.000000 
0.400000 0.400000 0.000000 
0.350000 0.400000 0.000000 
0.300000 0.400000 0.000000 
0.300000 0.350000 0.000000 
0.400000 0.300000 0.000000 
0.450000 0.300000 0.000000 
0.500000 0.300000 0.000000 
0.500000 0.350000 0.000000 
0.500000 0.400000 0.000000 
0.450000 0.400000 0.000000 
0.400000 0.400000 0.000000 
0.400000 0.350000 0.000000 
0.500000 0.300000 0.000000 
0.550000 0.300000 0.000000 
0.600000 0.300000 0.000000 
0.600000 0.350000 0.000000 
0.600000 0.400000 0.000000 
0.550000 0.400000 0.000000 
0.500000 0.400000 0.000000 
0.500000 0.350000 0.000000 
0.600000 0.300000 0.000000 
0.650000 0.300000 0.000000 
0.700000 0.300000 0.000000 
0.700000 0.350000 0.000000 
0.700000 0.400000 0.000000 
0.650000 0.400000 0.000000 
0.600000 0.400000 0.000000 
0.600000 0.350000 0.000000 
0.700000 0.300000 0.000000 
0.750000 0.300000 0.000000 
0.800000 0.300000 0.000000 
0.800000 0.350000 0.000000 
0.800000 0.400000 0.000000 
0.750000 0.400000 0.000000 
0.700000 0.400000 0.000000 
0.700000 0.350000 0.000000 
0.800000 0.300000 0.000000 
0.850000 0.300000 0.000000 
0.900000 0.300000 0.000000 
0.900000 0.350000 0.000000 
0.900000 0.400000 0.000000 
0.850000 0.400000 0.000000 
0.800000 0.400000 0.000000 
0.800000 0.350000 0.000000 
0.900000 0.300000 0.000000 
0.950000 0.300000 0.000000 
1.000000 0.300000 0.000000 
1.000000 0.350000 0.000000 
1.000000 0.400000 0.000000 
0.950000 0.400000 0.000000 
0.900000 0.400000 0.000000 
0.900000 0.350000 0.000000 
0.000000 0.400000 0.000000 
0.050000 0.400000 0.000000 
0.100000 0.400000 0.000000 
0.100000 0.450000 0.000000 
0.100000 0.500000 0.000000 
0.050000 0.500000 0.000000 
0.000000 0.500000 0.000000 
0.000000 0.450000 0.000000 
0.100000 0.400000 0.000000 
0.150000 0.400000 0.000000 
0.200000 0.400000 0.000000 
0.200000 0.450000 0.000000 
0.200000 0.500000 0.000000 
0.150000 0.500000 0.000000 
0.100000 0.500000 0.000000 
0.100000 0.450000 0.000000 
0.200000 0.400000 0.000000 
0.250000 0.400000 0.000000 
0.300000 0.400000 0.000000 
0.300000 0.450000 0.000000 
0.300000 0.500000 0.000000 
0.250000 0.500000 0.000000 
0.200000 0.500000 0.000000 
0.200000 0.450000 0.000000 
0.300000 0.400000 0.000000 
0.350000 0.400000 0.000000 
0.400000 0.400000 0.000000 
0.400000 0.450000 0.000000 
0.400000 0.500000 0.000000 
0.350000 0.500000 0.000000 
0.300000 0.500000 0.000000 
0.300000 0.450000 0.000000 
0.400000 0.400000 0.000000 
[...]
CELL_DATA 100
FIELD FieldData 1
material 1 100 int
1
1
1
1
1
1
1
1
1
1
1
1
1
1
1
1
1
1
1
1
1
1
1
1
1
1
1
1
1
1
1
1
1
1
1
1
1
1
1
1
1
1
1
1
1
1
1
1
1
1
1
1
1
1
1
1
1
1
1
1
1
1
1
1
1
1
1
1
1
1
1
1
1
1
1
1
1
1
1
1
1
1
1
1
1
1
1
1
1
1
1
1
1
1
1
1
1
1
1
1
POINT_DATA 800 SCALARS flux_g1 double 
LOOKUP_TABLE   default 
6.28503653e+00
6.60376814e+00
6.97721506e+00
7.32231371e+00
7.73255785e+00
7.32231371e+00
6.97721506e+00
6.60376814e+00
6.97704991e+00
7.35813693e+00
7.79353875e+00
8.17093801e+00
8.61168060e+00
8.13947959e+00
7.73240376e+00
7.32265405e+00
7.79353993e+00
8.23761219e+00
8.73591671e+00
9.14477470e+00
9.61678363e+00
9.08161265e+00
8.61168315e+00
8.17093357e+00
8.73591088e+00
9.24285774e+00
9.80400521e+00
1.02443142e+01
1.07476900e+01
1.01496157e+01
9.61677327e+00
9.14479175e+00
9.80400549e+00
1.03737942e+01
1.09977978e+01
1.14695203e+01
1.20043245e+01
1.13434201e+01
1.07476922e+01
1.02443115e+01
1.09977978e+01
1.16304312e+01
1.23172796e+01
1.28204175e+01
1.33866300e+01
1.26628890e+01
1.20043245e+01
1.14695203e+01
1.23172793e+01
1.30127689e+01
1.37624591e+01
1.42970037e+01
1.48946489e+01
1.41080225e+01
1.33866278e+01
1.28204201e+01
1.37624650e+01
1.45207975e+01
1.53333623e+01
1.58992515e+01
1.65284966e+01
1.56789572e+01
1.48946593e+01
1.42969867e+01
1.53333611e+01
1.61545964e+01
1.70301464e+01
1.76270780e+01
1.82881551e+01
1.73757620e+01
1.65284941e+01
1.58992559e+01
1.70303116e+01
1.79135017e+01
1.88514071e+01
1.94842980e+01
2.01719042e+01
1.91975339e+01
1.82883092e+01
1.76267376e+01
6.97704991e+00
7.32265405e+00
7.73240376e+00
8.13947959e+00
8.61168060e+00
8.17093801e+00
7.79353875e+00
7.35813693e+00
7.73224347e+00
8.13974802e+00
8.61149758e+00
9.05092204e+00
9.55348702e+00
9.05092204e+00
8.61149758e+00
8.13974802e+00
8.61150180e+00
9.08195320e+00
9.61664550e+00
1.00876314e+01
1.06213958e+01
1.00558597e+01
9.55348469e+00
9.05089018e+00
9.61663099e+00
1.01499184e+01
1.07475264e+01
1.12499203e+01
1.18151779e+01
1.11867642e+01
1.06213828e+01
1.00876621e+01
1.07475308e+01
1.13436973e+01
1.20041548e+01
1.25379066e+01
1.31346455e+01
1.24433889e+01
1.18151836e+01
1.12499138e+01
1.20041548e+01
1.26631662e+01
1.33864686e+01
1.39516835e+01
1.45797851e+01
1.38256897e+01
1.31346455e+01
1.25379066e+01
1.33864642e+01
1.41083251e+01
1.48945066e+01
1.54912014e+01
1.61505858e+01
1.53336665e+01
1.45797794e+01
1.39516900e+01
1.48945212e+01
1.56792978e+01
1.65283153e+01
1.71561992e+01
1.78472893e+01
1.69673635e+01
1.61505989e+01
1.54911708e+01
1.65283111e+01
1.73760304e+01
1.82879948e+01
1.89468267e+01
1.96699037e+01
1.87270274e+01
1.78472916e+01
1.71562311e+01
1.82881551e+01
1.91978743e+01
2.01717391e+01
2.08669853e+01
2.16165464e+01
2.06116449e+01
1.96700867e+01
1.89465583e+01
7.79353993e+00
8.17093357e+00
8.61168315e+00
9.08161265e+00
9.61678363e+00
9.14477470e+00
8.73591671e+00
8.23761219e+00
8.61150180e+00
9.05089018e+00
9.55348469e+00
1.00558597e+01
1.06213958e+01
1.00876314e+01
9.61664550e+00
9.08195320e+00
9.55347175e+00
1.00559071e+01
1.06213759e+01
1.11554163e+01
1.17521722e+01
1.11554163e+01
1.06213759e+01
1.00559071e+01
1.06213701e+01
1.11867709e+01
1.18151671e+01
1.23805325e+01
1.30087605e+01
1.23490821e+01
1.17521691e+01
1.11554201e+01
1.18151715e+01
1.24434111e+01
1.31346305e+01
1.37313839e+01
1.43910636e+01
1.36685426e+01
1.30087632e+01
1.23805252e+01
1.31346305e+01
1.38257119e+01
1.45797730e+01
1.52079586e+01
1.58990284e+01
1.51136752e+01
1.43910636e+01
1.37313839e+01
1.45797687e+01
1.53336732e+01
1.61505732e+01
1.68102869e+01
1.75326996e+01
1.66844800e+01
1.58990258e+01
1.52079659e+01
1.61505790e+01
1.69674110e+01
1.78472764e+01
1.85382073e+01
1.92921716e+01
1.83810794e+01
1.75327026e+01
1.68102830e+01
1.78472893e+01
1.87269955e+01
1.96699079e+01
2.03916868e+01
2.11777065e+01
2.02035598e+01
1.92921915e+01
1.85381598e+01
1.96700893e+01
2.06116405e+01
2.16165476e+01
2.23747791e+01
2.31872429e+01
2.21509683e+01
2.11778446e+01
2.03913462e+01
8.73591088e+00
9.14479175e+00
9.61677327e+00
1.01496157e+01
1.07476900e+01
1.02443142e+01
9.80400521e+00
9.24285774e+00
9.61663099e+00
1.00876621e+01
1.06213828e+01
1.11867642e+01
1.18151779e+01
1.12499203e+01
1.07475264e+01
1.01499184e+01
1.06213701e+01
1.11554201e+01
1.17521691e+01
1.23490821e+01
1.30087605e+01
1.23805325e+01
1.18151671e+01
1.11867709e+01
1.17521615e+01
1.23490984e+01
1.30087514e+01
1.36370350e+01
1.43281553e+01
1.36370350e+01
1.30087514e+01
1.23490984e+01
1.30087554e+01
1.36685600e+01
1.43910588e+01
1.50507140e+01
1.57732602e+01
1.50192929e+01
1.43281609e+01
1.36370229e+01
1.43910588e+01
1.51136926e+01
1.58990206e+01
1.65901200e+01
1.73440898e+01
1.65272573e+01
1.57732602e+01
1.50507140e+01
1.58990166e+01
1.66844962e+01
1.75326920e+01
1.82552926e+01
1.90406093e+01
1.81609284e+01
1.73440843e+01
1.65901321e+01
1.75326996e+01
1.83810832e+01
1.92921658e+01
2.00460622e+01
2.08629540e+01
1.99203549e+01
1.90406184e+01
1.82552763e+01
1.92921785e+01
2.02035904e+01
2.11776920e+01
2.19623068e+01
2.28112421e+01
2.18056716e+01
2.08629647e+01
2.00460555e+01
2.11778342e+01
2.21509853e+01
2.31872371e+01
2.40083432e+01
2.48836499e+01
2.38159944e+01
2.28114058e+01
2.19620041e+01
9.80400549e+00
1.02443115e+01
1.07476922e+01
1.13434201e+01
1.20043245e+01
1.14695203e+01
1.09977978e+01
1.03737942e+01
1.07475308e+01
1.12499138e+01
1.18151836e+01
1.24433889e+01
1.31346455e+01
1.25379066e+01
1.20041548e+01
1.13436973e+01
1.18151715e+01
1.23805252e+01
1.30087632e+01
1.36685426e+01
1.43910636e+01
1.37313839e+01
1.31346305e+01
1.24434111e+01
1.30087554e+01
1.36370229e+01
1.43281609e+01
1.50192929e+01
1.57732602e+01
1.50507140e+01
1.43910588e+01
1.36685600e+01
1.43281663e+01
1.50192848e+01
1.57732646e+01
1.64957740e+01
1.72812000e+01
1.64957740e+01
1.57732646e+01
1.50192848e+01
1.57732646e+01
1.65272492e+01
1.73440953e+01
1.80980456e+01
1.89148573e+01
1.80665703e+01
1.72812000e+01
1.64957740e+01
1.73440898e+01
1.81609164e+01
1.90406133e+01
1.98260816e+01
2.06742441e+01
1.97631030e+01
1.89148528e+01
1.80980537e+01
1.90406211e+01
1.99203475e+01
2.08629583e+01
2.16796935e+01
2.25594084e+01
2.15853656e+01
2.06742489e+01
1.98260642e+01
2.08629704e+01
2.18056651e+01
2.28112465e+01
2.36587405e+01
2.45705254e+01
2.35334809e+01
2.25594235e+01
2.16796713e+01
2.28114080e+01
2.38159917e+01
2.48836502e+01
2.57675982e+01
2.67057610e+01
2.56066873e+01
2.45706951e+01
2.36584633e+01
1.09977978e+01
1.14695203e+01
1.20043245e+01
1.26628890e+01
1.33866300e+01
1.28204175e+01
1.23172796e+01
1.16304312e+01
1.20041548e+01
1.25379066e+01
1.31346455e+01
1.38256897e+01
1.45797851e+01
1.39516835e+01
1.33864686e+01
1.26631662e+01
1.31346305e+01
1.37313839e+01
1.43910636e+01
1.51136752e+01
1.58990284e+01
1.52079586e+01
1.45797730e+01
1.38257119e+01
1.43910588e+01
1.50507140e+01
1.57732602e+01
1.65272573e+01
1.73440898e+01
1.65901200e+01
1.58990206e+01
1.51136926e+01
1.57732646e+01
1.64957740e+01
1.72812000e+01
1.80665703e+01
1.89148573e+01
1.80980456e+01
1.73440953e+01
1.65272492e+01
1.72812000e+01
1.80665703e+01
1.89148573e+01
1.97316737e+01
2.06113516e+01
1.97316737e+01
1.89148573e+01
1.80665703e+01
1.89148528e+01
1.97631030e+01
2.06742441e+01
2.15225416e+01
2.24335334e+01
2.14910046e+01
2.06113462e+01
1.97316818e+01
2.06742489e+01
2.15853656e+01
2.25594084e+01
2.34389854e+01
2.43815421e+01
2.33760995e+01
2.24335411e+01
2.15225242e+01
2.25594235e+01
2.35334809e+01
2.45705254e+01
2.54808643e+01
2.64554940e+01
2.53870807e+01
2.43815542e+01
2.34389632e+01
2.45706951e+01
2.56066873e+01
2.67057610e+01
2.76525538e+01
2.86535614e+01
2.75230711e+01
2.64556554e+01
2.54805870e+01
1.23172793e+01
1.28204201e+01
1.33866278e+01
1.41080225e+01
1.48946489e+01
1.42970037e+01
1.37624591e+01
1.30127689e+01
1.33864642e+01
1.39516900e+01
1.45797794e+01
1.53336665e+01
1.61505858e+01
1.54912014e+01
1.48945066e+01
1.41083251e+01
1.45797687e+01
1.52079659e+01
1.58990258e+01
1.66844800e+01
1.75326996e+01
1.68102869e+01
1.61505732e+01
1.53336732e+01
1.58990166e+01
1.65901321e+01
1.73440843e+01
1.81609284e+01
1.90406093e+01
1.82552926e+01
1.75326920e+01
1.66844962e+01
1.73440898e+01
1.80980537e+01
1.89148528e+01
1.97631030e+01
2.06742441e+01
1.98260816e+01
1.90406133e+01
1.81609164e+01
1.89148528e+01
1.97316818e+01
2.06113462e+01
2.14910046e+01
2.24335334e+01
2.15225416e+01
2.06742441e+01
1.97631030e+01
2.06113406e+01
2.14910166e+01
2.24335294e+01
2.33446727e+01
2.43185321e+01
2.33446727e+01
2.24335294e+01
2.14910166e+01
2.24335385e+01
2.33761068e+01
2.43815378e+01
2.53239379e+01
2.63293334e+01
2.52925870e+01
2.43185398e+01
2.33446564e+01
2.43815485e+01
2.53870872e+01
2.64554896e+01
2.74286780e+01
2.84661869e+01
2.73664217e+01
2.63293460e+01
2.53239311e+01
2.64556533e+01
2.75230738e+01
2.86535611e+01
2.96632100e+01
3.07270595e+01
2.95651440e+01
2.84663292e+01
2.74283753e+01
1.37624650e+01
1.42969867e+01
1.48946593e+01
1.56789572e+01
1.65284966e+01
1.58992515e+01
1.53333623e+01
1.45207975e+01
1.48945212e+01
1.54911708e+01
1.61505989e+01
1.69673635e+01
1.78472893e+01
1.71561992e+01
1.65283153e+01
1.56792978e+01
1.61505790e+01
1.68102830e+01
1.75327026e+01
1.83810794e+01
1.92921716e+01
1.85382073e+01
1.78472764e+01
1.69674110e+01
1.75326996e+01
1.82552763e+01
1.90406184e+01
1.99203549e+01
2.08629540e+01
2.00460622e+01
1.92921658e+01
1.83810832e+01
1.90406211e+01
1.98260642e+01
2.06742489e+01
2.15853656e+01
2.25594084e+01
2.16796935e+01
2.08629583e+01
1.99203475e+01
2.06742489e+01
2.15225242e+01
2.24335411e+01
2.33760995e+01
2.43815421e+01
2.34389854e+01
2.25594084e+01
2.15853656e+01
2.24335385e+01
2.33446564e+01
2.43185398e+01
2.52925870e+01
2.63293334e+01
2.53239379e+01
2.43815378e+01
2.33761068e+01
2.43185428e+01
2.52925832e+01
2.63293392e+01
2.73346667e+01
2.84030277e+01
2.73346667e+01
2.63293392e+01
2.52925832e+01
2.63293591e+01
2.73663910e+01
2.84662014e+01
2.95023055e+01
3.06026504e+01
2.94712424e+01
2.84030406e+01
2.73346193e+01
2.84663396e+01
2.95651270e+01
3.07270653e+01
3.17995571e+01
3.29262812e+01
3.17328785e+01
3.06028317e+01
2.95019649e+01
1.53333611e+01
1.58992559e+01
1.65284941e+01
1.73757620e+01
1.82881551e+01
1.76270780e+01
1.70301464e+01
1.61545964e+01
1.65283111e+01
1.71562311e+01
1.78472916e+01
1.87270274e+01
1.96699037e+01
1.89468267e+01
1.82879948e+01
1.73760304e+01
1.78472893e+01
1.85381598e+01
1.92921915e+01
2.02035598e+01
2.11777065e+01
2.03916868e+01
1.96699079e+01
1.87269955e+01
1.92921785e+01
2.00460555e+01
2.08629647e+01
2.18056716e+01
2.28112421e+01
2.19623068e+01
2.11776920e+01
2.02035904e+01
2.08629704e+01
2.16796713e+01
2.25594235e+01
2.35334809e+01
2.45705254e+01
2.36587405e+01
2.28112465e+01
2.18056651e+01
2.25594235e+01
2.34389632e+01
2.43815542e+01
2.53870807e+01
2.64554940e+01
2.54808643e+01
2.45705254e+01
2.35334809e+01
2.43815485e+01
2.53239311e+01
2.63293460e+01
2.73664217e+01
2.84661869e+01
2.74286780e+01
2.64554896e+01
2.53870872e+01
2.63293591e+01
2.73346193e+01
2.84030406e+01
2.94712424e+01
3.06026504e+01
2.95023055e+01
2.84662014e+01
2.73663910e+01
2.84030429e+01
2.94712743e+01
3.06026462e+01
3.17016929e+01
3.28649847e+01
3.17016929e+01
3.06026462e+01
2.94712743e+01
3.06028292e+01
3.17328829e+01
3.29262800e+01
3.40616745e+01
3.52513838e+01
3.40261916e+01
3.28651450e+01
3.17014245e+01
1.70303116e+01
1.76267376e+01
1.82883092e+01
1.91975339e+01
2.01719042e+01
1.94842980e+01
1.88514071e+01
1.79135017e+01
1.82881551e+01
1.89465583e+01
1.96700867e+01
2.06116449e+01
2.16165464e+01
2.08669853e+01
2.01717391e+01
1.91978743e+01
1.96700893e+01
2.03913462e+01
2.11778446e+01
2.21509683e+01
2.31872429e+01
2.23747791e+01
2.16165476e+01
2.06116405e+01
2.11778342e+01
2.19620041e+01
2.28114058e+01
2.38159944e+01
2.48836499e+01
2.40083432e+01
2.31872371e+01
2.21509853e+01
2.28114080e+01
2.36584633e+01
2.45706951e+01
2.56066873e+01
2.67057610e+01
2.57675982e+01
2.48836502e+01
2.38159917e+01
2.45706951e+01
2.54805870e+01
2.64556554e+01
2.75230711e+01
2.86535614e+01
2.76525538e+01
2.67057610e+01
2.56066873e+01
2.64556533e+01
2.74283753e+01
2.84663292e+01
2.95651440e+01
3.07270595e+01
2.96632100e+01
2.86535611e+01
2.75230738e+01
2.84663396e+01
2.95019649e+01
3.06028317e+01
3.17328785e+01
3.29262812e+01
3.17995571e+01
3.07270653e+01
2.95651270e+01
3.06028292e+01
3.17014245e+01
3.28651450e+01
3.40261916e+01
3.52513838e+01
3.40616745e+01
3.29262800e+01
3.17328829e+01
3.28652991e+01
3.40258513e+01
3.52515489e+01
3.64488984e+01
3.77009631e+01
3.64488984e+01
3.52515489e+01
3.40258513e+01
 
