# vtk DataFile Version 3.0 
Date: 3/21/2016   Time: 14:2
ASCII 
DATASET UNSTRUCTURED_GRID 
 
POINTS 896 float 
0.929928 0.000000 0.000000 
0.964964 0.000000 0.000000 
1.000000 0.000000 0.000000 
1.000000 0.037936 0.000000 
1.000000 0.075873 0.000000 
0.984088 0.075873 0.000000 
0.968175 0.075873 0.000000 
0.949051 0.037936 0.000000 
0.784284 0.000000 0.000000 
0.831217 0.000000 0.000000 
0.878150 0.000000 0.000000 
0.857031 0.025243 0.000000 
0.835913 0.050486 0.000000 
0.810099 0.047531 0.000000 
0.784284 0.044576 0.000000 
0.784284 0.022288 0.000000 
0.723686 0.000000 0.000000 
0.753985 0.000000 0.000000 
0.784284 0.000000 0.000000 
0.784284 0.022288 0.000000 
0.784284 0.044576 0.000000 
0.753985 0.064166 0.000000 
0.723686 0.083757 0.000000 
0.723686 0.041878 0.000000 
0.689151 0.000000 0.000000 
0.706419 0.000000 0.000000 
0.723686 0.000000 0.000000 
0.723686 0.041878 0.000000 
0.723686 0.083757 0.000000 
0.718729 0.089429 0.000000 
0.713772 0.095101 0.000000 
0.701461 0.092792 0.000000 
0.689151 0.090482 0.000000 
0.689151 0.045241 0.000000 
0.614296 0.000000 0.000000 
0.651723 0.000000 0.000000 
0.689151 0.000000 0.000000 
0.689151 0.045241 0.000000 
0.689151 0.090482 0.000000 
0.651723 0.087890 0.000000 
0.614296 0.085298 0.000000 
0.614296 0.042649 0.000000 
0.424986 0.029193 0.000000 
0.424986 0.014597 0.000000 
0.424986 0.000000 0.000000 
0.519641 0.000000 0.000000 
0.614296 0.000000 0.000000 
0.614296 0.042649 0.000000 
0.614296 0.085298 0.000000 
0.580392 0.107350 0.000000 
0.546489 0.129401 0.000000 
0.522694 0.128201 0.000000 
0.498899 0.127000 0.000000 
0.473919 0.112687 0.000000 
0.448939 0.098373 0.000000 
0.436962 0.063783 0.000000 
0.207535 0.000000 0.000000 
0.316261 0.000000 0.000000 
0.424986 0.000000 0.000000 
0.424986 0.014597 0.000000 
0.424986 0.029193 0.000000 
0.316261 0.040535 0.000000 
0.207535 0.051876 0.000000 
0.207535 0.025938 0.000000 
0.057556 0.000000 0.000000 
0.132545 0.000000 0.000000 
0.207535 0.000000 0.000000 
0.207535 0.025938 0.000000 
0.207535 0.051876 0.000000 
0.200985 0.067049 0.000000 
0.194434 0.082222 0.000000 
0.154334 0.098403 0.000000 
0.114234 0.114583 0.000000 
0.085895 0.088183 0.000000 
0.057556 0.061784 0.000000 
0.057556 0.030892 0.000000 
0.000000 0.000000 0.000000 
0.028778 0.000000 0.000000 
0.057556 0.000000 0.000000 
0.057556 0.030892 0.000000 
0.057556 0.061784 0.000000 
0.028778 0.061784 0.000000 
0.000000 0.061784 0.000000 
0.000000 0.030892 0.000000 
0.968175 0.075873 0.000000 
0.984088 0.075873 0.000000 
1.000000 0.075873 0.000000 
1.000000 0.125996 0.000000 
1.000000 0.176120 0.000000 
0.989860 0.176120 0.000000 
0.979719 0.176120 0.000000 
0.951790 0.151947 0.000000 
0.923860 0.127774 0.000000 
0.946017 0.101823 0.000000 
0.835913 0.050486 0.000000 
0.857031 0.025243 0.000000 
0.878150 0.000000 0.000000 
0.904039 0.000000 0.000000 
0.929928 0.000000 0.000000 
0.949051 0.037936 0.000000 
0.968175 0.075873 0.000000 
0.946017 0.101823 0.000000 
0.923860 0.127774 0.000000 
0.921152 0.129101 0.000000 
0.918443 0.130429 0.000000 
0.896570 0.128495 0.000000 
0.874697 0.126561 0.000000 
0.855305 0.088524 0.000000 
0.713772 0.095101 0.000000 
0.718729 0.089429 0.000000 
0.723686 0.083757 0.000000 
0.753985 0.064166 0.000000 
0.784284 0.044576 0.000000 
0.810099 0.047531 0.000000 
0.835913 0.050486 0.000000 
0.855305 0.088524 0.000000 
0.874697 0.126561 0.000000 
0.828969 0.156128 0.000000 
0.783241 0.185694 0.000000 
0.775277 0.187101 0.000000 
0.767313 0.188508 0.000000 
0.740542 0.141805 0.000000 
0.546489 0.129401 0.000000 
0.580392 0.107350 0.000000 
0.614296 0.085298 0.000000 
0.651723 0.087890 0.000000 
0.689151 0.090482 0.000000 
0.701461 0.092792 0.000000 
0.713772 0.095101 0.000000 
0.740542 0.141805 0.000000 
0.767313 0.188508 0.000000 
0.754760 0.214973 0.000000 
0.742207 0.241438 0.000000 
0.683159 0.248227 0.000000 
0.624110 0.255015 0.000000 
0.585300 0.192208 0.000000 
0.416045 0.121458 0.000000 
0.432492 0.109916 0.000000 
0.448939 0.098373 0.000000 
0.473919 0.112687 0.000000 
0.498899 0.127000 0.000000 
0.482727 0.211961 0.000000 
0.466556 0.296921 0.000000 
0.442392 0.299429 0.000000 
0.418227 0.301937 0.000000 
0.398193 0.279512 0.000000 
0.378158 0.257086 0.000000 
0.374512 0.242197 0.000000 
0.370865 0.227308 0.000000 
0.393455 0.174383 0.000000 
0.265790 0.154449 0.000000 
0.340917 0.137954 0.000000 
0.416045 0.121458 0.000000 
0.393455 0.174383 0.000000 
0.370865 0.227308 0.000000 
0.366778 0.227372 0.000000 
0.362691 0.227435 0.000000 
0.313629 0.210486 0.000000 
0.264567 0.193538 0.000000 
0.265178 0.173994 0.000000 
0.194434 0.082222 0.000000 
0.200985 0.067049 0.000000 
0.207535 0.051876 0.000000 
0.316261 0.040535 0.000000 
0.424986 0.029193 0.000000 
0.436962 0.063783 0.000000 
0.448939 0.098373 0.000000 
0.432492 0.109916 0.000000 
0.416045 0.121458 0.000000 
0.340917 0.137954 0.000000 
0.265790 0.154449 0.000000 
0.230112 0.118336 0.000000 
0.103073 0.144340 0.000000 
0.108654 0.129462 0.000000 
0.114234 0.114583 0.000000 
0.154334 0.098403 0.000000 
0.194434 0.082222 0.000000 
0.230112 0.118336 0.000000 
0.265790 0.154449 0.000000 
0.265178 0.173994 0.000000 
0.264567 0.193538 0.000000 
0.264269 0.194659 0.000000 
0.263972 0.195779 0.000000 
0.237941 0.220941 0.000000 
0.211910 0.246103 0.000000 
0.157492 0.195221 0.000000 
0.000000 0.061784 0.000000 
0.028778 0.061784 0.000000 
0.057556 0.061784 0.000000 
0.085895 0.088183 0.000000 
0.114234 0.114583 0.000000 
0.108654 0.129462 0.000000 
0.103073 0.144340 0.000000 
0.101594 0.146541 0.000000 
0.100115 0.148741 0.000000 
0.084033 0.163508 0.000000 
0.067950 0.178275 0.000000 
0.033975 0.178275 0.000000 
0.000000 0.178275 0.000000 
0.000000 0.120029 0.000000 
0.979719 0.176120 0.000000 
0.989860 0.176120 0.000000 
1.000000 0.176120 0.000000 
1.000000 0.198622 0.000000 
1.000000 0.221123 0.000000 
0.989422 0.221123 0.000000 
0.978845 0.221123 0.000000 
0.979282 0.198622 0.000000 
0.918443 0.130429 0.000000 
0.921152 0.129101 0.000000 
0.923860 0.127774 0.000000 
0.951790 0.151947 0.000000 
0.979719 0.176120 0.000000 
0.979282 0.198622 0.000000 
0.978845 0.221123 0.000000 
0.950647 0.248937 0.000000 
0.922450 0.276752 0.000000 
0.919152 0.270273 0.000000 
0.915853 0.263794 0.000000 
0.917148 0.197112 0.000000 
0.874697 0.126561 0.000000 
0.896570 0.128495 0.000000 
0.918443 0.130429 0.000000 
0.917148 0.197112 0.000000 
0.915853 0.263794 0.000000 
0.849547 0.224744 0.000000 
0.783241 0.185694 0.000000 
0.828969 0.156128 0.000000 
0.498899 0.127000 0.000000 
0.522694 0.128201 0.000000 
0.546489 0.129401 0.000000 
0.585300 0.192208 0.000000 
0.624110 0.255015 0.000000 
0.619752 0.265350 0.000000 
0.615393 0.275685 0.000000 
0.590810 0.298381 0.000000 
0.566227 0.321077 0.000000 
0.541070 0.333402 0.000000 
0.515912 0.345728 0.000000 
0.491234 0.321325 0.000000 
0.466556 0.296921 0.000000 
0.482727 0.211961 0.000000 
0.339391 0.275229 0.000000 
0.358775 0.266157 0.000000 
0.378158 0.257086 0.000000 
0.398193 0.279512 0.000000 
0.418227 0.301937 0.000000 
0.415196 0.304977 0.000000 
0.412164 0.308017 0.000000 
0.378618 0.316097 0.000000 
0.345072 0.324176 0.000000 
0.338097 0.316369 0.000000 
0.331122 0.308561 0.000000 
0.335257 0.291895 0.000000 
0.362691 0.227435 0.000000 
0.366778 0.227372 0.000000 
0.370865 0.227308 0.000000 
0.374512 0.242197 0.000000 
0.378158 0.257086 0.000000 
0.358775 0.266157 0.000000 
0.339391 0.275229 0.000000 
0.320759 0.265505 0.000000 
0.302126 0.255781 0.000000 
0.332409 0.241608 0.000000 
0.263972 0.195779 0.000000 
0.264269 0.194659 0.000000 
0.264567 0.193538 0.000000 
0.313629 0.210486 0.000000 
0.362691 0.227435 0.000000 
0.332409 0.241608 0.000000 
0.302126 0.255781 0.000000 
0.299287 0.255582 0.000000 
0.296448 0.255382 0.000000 
0.280210 0.225581 0.000000 
0.100115 0.148741 0.000000 
0.101594 0.146541 0.000000 
0.103073 0.144340 0.000000 
0.157492 0.195221 0.000000 
0.211910 0.246103 0.000000 
0.205307 0.265844 0.000000 
0.198703 0.285585 0.000000 
0.188935 0.286973 0.000000 
0.179166 0.288361 0.000000 
0.167872 0.285839 0.000000 
0.156577 0.283316 0.000000 
0.128346 0.216029 0.000000 
0.000000 0.178275 0.000000 
0.033975 0.178275 0.000000 
0.067950 0.178275 0.000000 
0.063236 0.209435 0.000000 
0.058522 0.240595 0.000000 
0.056141 0.242735 0.000000 
0.053761 0.244875 0.000000 
0.026880 0.244875 0.000000 
0.000000 0.244875 0.000000 
0.000000 0.211575 0.000000 
0.978845 0.221123 0.000000 
0.989422 0.221123 0.000000 
1.000000 0.221123 0.000000 
1.000000 0.253869 0.000000 
1.000000 0.286616 0.000000 
0.961801 0.286616 0.000000 
0.923602 0.286616 0.000000 
0.923026 0.281684 0.000000 
0.922450 0.276752 0.000000 
0.950647 0.248937 0.000000 
0.742207 0.241438 0.000000 
0.754760 0.214973 0.000000 
0.767313 0.188508 0.000000 
0.775277 0.187101 0.000000 
0.783241 0.185694 0.000000 
0.849547 0.224744 0.000000 
0.915853 0.263794 0.000000 
0.919152 0.270273 0.000000 
0.922450 0.276752 0.000000 
0.923026 0.281684 0.000000 
0.923602 0.286616 0.000000 
0.913052 0.310580 0.000000 
0.902501 0.334543 0.000000 
0.828742 0.304854 0.000000 
0.754983 0.275164 0.000000 
0.748595 0.258301 0.000000 
0.615393 0.275685 0.000000 
0.619752 0.265350 0.000000 
0.624110 0.255015 0.000000 
0.683159 0.248227 0.000000 
0.742207 0.241438 0.000000 
0.748595 0.258301 0.000000 
0.754983 0.275164 0.000000 
0.743775 0.332577 0.000000 
0.732568 0.389991 0.000000 
0.707460 0.385982 0.000000 
0.682352 0.381973 0.000000 
0.648872 0.328829 0.000000 
0.345072 0.324176 0.000000 
0.378618 0.316097 0.000000 
0.412164 0.308017 0.000000 
0.390651 0.383691 0.000000 
0.369138 0.459365 0.000000 
0.347834 0.443018 0.000000 
0.326529 0.426671 0.000000 
0.322047 0.409265 0.000000 
0.317564 0.391859 0.000000 
0.331318 0.358017 0.000000 
0.255086 0.321925 0.000000 
0.269067 0.310554 0.000000 
0.283048 0.299183 0.000000 
0.307085 0.303872 0.000000 
0.331122 0.308561 0.000000 
0.338097 0.316369 0.000000 
0.345072 0.324176 0.000000 
0.331318 0.358017 0.000000 
0.317564 0.391859 0.000000 
[...]
CELL_DATA 81
FIELD FieldData 1
material 1 81 int
1
1
1
1
1
1
1
1
1
1
1
1
1
1
1
1
1
1
1
1
1
1
1
1
1
1
1
1
1
1
1
1
1
1
1
1
1
1
1
1
1
1
1
1
1
1
1
1
1
1
1
1
1
1
1
1
1
1
1
1
1
1
1
1
1
1
1
1
1
1
1
1
1
1
1
1
1
1
1
1
1
POINT_DATA 896 SCALARS flux_g1 double 
LOOKUP_TABLE   default 
1.75619218e+01
1.81936570e+01
1.88509866e+01
1.93312296e+01
1.98415701e+01
1.95339445e+01
1.92338304e+01
1.83656083e+01
1.50791163e+01
1.58424368e+01
1.66490842e+01
1.65823820e+01
1.65286878e+01
1.60513591e+01
1.55932168e+01
1.53287537e+01
1.41229821e+01
1.45910667e+01
1.50789737e+01
1.53294707e+01
1.55929365e+01
1.53257004e+01
1.50766034e+01
1.45785338e+01
1.35990291e+01
1.38573301e+01
1.41230169e+01
1.45788128e+01
1.50766000e+01
1.50650499e+01
1.50548308e+01
1.48316907e+01
1.46137217e+01
1.40814263e+01
1.25160172e+01
1.30411615e+01
1.35990867e+01
1.40808211e+01
1.46138295e+01
1.40021570e+01
1.34311546e+01
1.29521269e+01
1.03657666e+01
1.02245320e+01
1.00917887e+01
1.12160400e+01
1.25157241e+01
1.29496300e+01
1.34323240e+01
1.31858415e+01
1.29635777e+01
1.26162314e+01
1.22876728e+01
1.17954312e+01
1.13353628e+01
1.08304651e+01
7.86065980e+00
8.86306918e+00
1.00911712e+01
1.02239944e+01
1.03629739e+01
9.19860886e+00
8.27623677e+00
8.06123673e+00
6.66773018e+00
7.20854629e+00
7.86128931e+00
8.06285353e+00
8.28009764e+00
8.34179279e+00
8.41152543e+00
8.17595642e+00
7.97355534e+00
7.51213473e+00
7.10668107e+00
6.87340076e+00
6.28411488e+00
6.46642495e+00
6.66793285e+00
6.87509357e+00
7.10602391e+00
6.89146348e+00
6.69831340e+00
6.48018896e+00
1.92340847e+01
1.95338334e+01
1.98411535e+01
2.05266948e+01
2.12607394e+01
2.10583099e+01
2.08595836e+01
1.99555937e+01
1.91018206e+01
1.91602228e+01
1.65287394e+01
1.65824970e+01
1.66492364e+01
1.70970510e+01
1.75621643e+01
1.83656844e+01
1.92337054e+01
1.91604094e+01
1.91019890e+01
1.90694887e+01
1.90371035e+01
1.86029459e+01
1.81822980e+01
1.73232084e+01
1.50546942e+01
1.50655021e+01
1.50765070e+01
1.53261310e+01
1.55927744e+01
1.60519914e+01
1.65285611e+01
1.73236186e+01
1.81821397e+01
1.77515709e+01
1.73616880e+01
1.72428539e+01
1.71261046e+01
1.60375945e+01
1.29624101e+01
1.31866598e+01
1.34312487e+01
1.40022586e+01
1.46136245e+01
1.48322809e+01
1.50548784e+01
1.60379269e+01
1.71259519e+01
1.72673942e+01
1.74218877e+01
1.65063862e+01
1.56700350e+01
1.42161136e+01
1.11658756e+01
1.12494680e+01
1.13356580e+01
1.17951429e+01
1.22869963e+01
1.30044307e+01
1.38790975e+01
1.35737891e+01
1.32803293e+01
1.27264256e+01
1.22056192e+01
1.19824881e+01
1.17664631e+01
1.14393643e+01
9.78324623e+00
1.04158036e+01
1.11661836e+01
1.14404549e+01
1.17663112e+01
1.17175428e+01
1.16679669e+01
1.08742371e+01
1.01654641e+01
9.96951584e+00
8.41207034e+00
8.34043844e+00
8.27667626e+00
9.19765032e+00
1.03632605e+01
1.08272410e+01
1.13376479e+01
1.12467761e+01
1.11660832e+01
1.04162146e+01
9.78335677e+00
9.04856767e+00
8.13455064e+00
8.05255130e+00
7.97308658e+00
8.17696845e+00
8.41091412e+00
9.04880166e+00
9.78338471e+00
9.97032186e+00
1.01652840e+01
1.01735395e+01
1.01837746e+01
1.01637615e+01
1.01589322e+01
9.04197791e+00
6.69854114e+00
6.89080352e+00
7.10589596e+00
7.51297496e+00
7.97310917e+00
8.05158037e+00
8.13542685e+00
8.14107045e+00
8.14963319e+00
8.14114788e+00
8.14143772e+00
7.85757403e+00
7.60634598e+00
7.11904851e+00
2.08594045e+01
2.10589722e+01
2.12606485e+01
2.15939941e+01
2.19382031e+01
2.17242976e+01
2.15134645e+01
2.11800724e+01
1.90374406e+01
1.90697040e+01
1.91019916e+01
1.99554510e+01
2.08593504e+01
2.11799118e+01
2.15136350e+01
2.13734641e+01
2.12535771e+01
2.10880782e+01
2.09244630e+01
1.99265464e+01
1.81824137e+01
1.86035962e+01
1.90374357e+01
1.99264628e+01
2.09247959e+01
1.90363099e+01
1.73613486e+01
1.77518584e+01
1.22871613e+01
1.26177395e+01
1.29622375e+01
1.42170093e+01
1.56703078e+01
1.57407638e+01
1.58121628e+01
1.57343143e+01
1.56692385e+01
1.54519761e+01
1.52463211e+01
1.45397149e+01
1.38793226e+01
1.30040680e+01
1.19376919e+01
1.20677448e+01
1.22055435e+01
1.27266051e+01
1.32803001e+01
1.32784734e+01
1.32765402e+01
1.29295154e+01
1.26050136e+01
1.24186419e+01
1.22370674e+01
1.20840307e+01
1.16680258e+01
1.17169962e+01
1.17666918e+01
1.19822739e+01
1.22055349e+01
1.20679465e+01
1.19375374e+01
1.15940702e+01
1.12658112e+01
1.14588273e+01
1.01823753e+01
1.01740154e+01
1.01655526e+01
1.08740545e+01
1.16680276e+01
1.14586420e+01
1.12657992e+01
1.12303104e+01
1.11950663e+01
1.06685259e+01
8.14824061e+00
8.14110728e+00
8.13474425e+00
9.04168427e+00
1.01589577e+01
1.03012954e+01
1.04511997e+01
1.03627620e+01
1.02765041e+01
1.01315563e+01
9.99033320e+00
8.97691010e+00
7.60606033e+00
7.85877064e+00
8.14084486e+00
8.38086925e+00
8.64119106e+00
8.64154319e+00
8.64254414e+00
8.41325785e+00
8.20188783e+00
7.89148095e+00
2.15136445e+01
2.17237264e+01
2.19384476e+01
2.24427616e+01
2.29698496e+01
2.21822606e+01
2.14309901e+01
2.13417882e+01
2.12535690e+01
2.13737487e+01
1.74222740e+01
1.72675557e+01
1.71259835e+01
1.72430857e+01
1.73614312e+01
1.90358835e+01
2.09249826e+01
2.10883905e+01
2.12517817e+01
2.13419968e+01
2.14305547e+01
2.15988608e+01
2.17785221e+01
1.98440779e+01
1.81236822e+01
1.77677325e+01
1.58124403e+01
1.57405187e+01
1.56704093e+01
1.65054095e+01
1.74224789e+01
1.77670706e+01
1.81234569e+01
1.87596575e+01
1.94660251e+01
1.89534145e+01
1.84583632e+01
1.70633831e+01
1.26051204e+01
1.29296124e+01
1.32765710e+01
1.39533500e+01
1.47443366e+01
1.42152665e+01
1.37122269e+01
1.34155020e+01
1.31276745e+01
1.28542034e+01
1.14921655e+01
1.15171989e+01
1.15460520e+01
1.18818574e+01
1.22370006e+01
1.24187291e+01
1.26050171e+01
1.28546527e+01
1.31275837e+01
1.22671624e+01
1.11950339e+01
1.12302781e+01
1.12657555e+01
1.15941878e+01
1.19375011e+01
1.20841471e+01
1.22369217e+01
1.18819729e+01
1.15460191e+01
1.13654054e+01
1.01593633e+01
1.01631204e+01
1.01823746e+01
1.06684174e+01
1.11949858e+01
1.13655780e+01
1.15460741e+01
1.15172796e+01
1.14922027e+01
1.13605159e+01
1.12315501e+01
1.08302786e+01
1.04514078e+01
1.03011109e+01
8.14117807e+00
8.14172453e+00
8.14834295e+00
8.97672717e+00
9.99038043e+00
9.81470193e+00
9.65149103e+00
9.11981765e+00
8.64155623e+00
8.38028316e+00
8.20184662e+00
8.41380182e+00
8.64226587e+00
8.68032538e+00
8.72067583e+00
8.55715606e+00
8.40244155e+00
8.30076603e+00
2.14310030e+01
2.21817037e+01
2.29700116e+01
2.36772155e+01
2.44265128e+01
2.34209951e+01
2.24714279e+01
2.21191904e+01
2.17786888e+01
2.15987164e+01
1.81237188e+01
1.98439028e+01
2.17783795e+01
2.21202483e+01
2.24709399e+01
2.30385246e+01
2.36785048e+01
2.21959407e+01
2.08324697e+01
2.01333153e+01
1.94662445e+01
1.87596013e+01
1.56694325e+01
1.57341272e+01
1.58124279e+01
1.70631833e+01
1.84585253e+01
1.82404777e+01
1.80295290e+01
1.67931523e+01
1.32765824e+01
1.32787217e+01
1.32801997e+01
1.35732615e+01
1.38791370e+01
1.45396721e+01
1.52461322e+01
1.53463263e+01
1.54478631e+01
1.52140601e+01
1.50796624e+01
1.49107190e+01
1.47445238e+01
1.39531261e+01
1.12315715e+01
1.13607725e+01
1.14920972e+01
1.22671401e+01
1.31275839e+01
1.34153385e+01
1.37120723e+01
1.28892323e+01
1.21728179e+01
1.21140976e+01
1.20573384e+01
1.16180786e+01
1.02765303e+01
1.03636223e+01
1.04509983e+01
1.08306413e+01
1.12315475e+01
1.16180989e+01
1.20571115e+01
1.13803574e+01
1.07596032e+01
1.05069468e+01
9.65143233e+00
9.81443890e+00
9.99041942e+00
1.01312188e+01
1.02767553e+01
1.05068845e+01
1.07595783e+01
1.03555688e+01
9.98214111e+00
9.97236908e+00
9.96419922e+00
9.80330323e+00
8.86209371e+00
8.79032299e+00
8.72073375e+00
8.68057989e+00
8.64238135e+00
8.64182243e+00
8.64138505e+00
9.11984859e+00
9.65158142e+00
9.80309210e+00
9.96417984e+00
9.67593100e+00
9.40885720e+00
9.12714691e+00
8.40242972e+00
8.55717630e+00
8.72068118e+00
8.79006551e+00
8.86189629e+00
8.73514860e+00
8.61354469e+00
8.50657335e+00
2.24713971e+01
2.34198710e+01
2.44268749e+01
2.55019997e+01
2.66590018e+01
2.51278115e+01
2.37095444e+01
2.36927152e+01
2.36794317e+01
2.30374323e+01
1.80295489e+01
1.82406741e+01
1.84583487e+01
1.89530738e+01
1.94660847e+01
2.01333922e+01
2.08319575e+01
2.00615870e+01
1.93836668e+01
1.89959096e+01
1.86177281e+01
1.83401015e+01
1.80682290e+01
1.80373537e+01
1.54479554e+01
1.53460063e+01
1.52465793e+01
1.54518277e+01
1.56694722e+01
1.67928976e+01
1.80296562e+01
1.80374986e+01
1.80681078e+01
1.76711036e+01
1.72857021e+01
1.63295864e+01
1.54477759e+01
1.63295912e+01
1.72855054e+01
1.63855129e+01
1.56206251e+01
1.54145376e+01
1.52108775e+01
1.51453030e+01
1.50797031e+01
1.52141201e+01
1.21873351e+01
1.21797820e+01
1.21729111e+01
1.28887104e+01
1.37122697e+01
1.42150407e+01
1.47444161e+01
1.49105665e+01
1.50795467e+01
1.51451974e+01
1.52108766e+01
1.53264413e+01
1.54817322e+01
1.39528081e+01
1.26390728e+01
1.24090402e+01
1.30885913e+01
1.28512026e+01
1.26391565e+01
1.39524653e+01
1.54819252e+01
1.57487446e+01
1.60259083e+01
1.44342340e+01
9.98221396e+00
1.03553251e+01
1.07596781e+01
1.13803776e+01
1.20571188e+01
1.21146631e+01
1.21727556e+01
1.21798207e+01
1.21870259e+01
1.15722016e+01
1.10158504e+01
1.04756166e+01
9.37687704e+00
9.39107467e+00
9.40892124e+00
9.67606909e+00
9.96428690e+00
9.97360038e+00
9.98217316e+00
1.04756173e+01
1.10156018e+01
1.09916603e+01
1.09691340e+01
1.05440516e+01
1.01539904e+01
9.75276842e+00
8.61344717e+00
8.73479079e+00
8.86194680e+00
9.12732598e+00
9.40891355e+00
9.39142850e+00
9.37721190e+00
9.37446336e+00
9.37339937e+00
8.98059135e+00
2.37101753e+01
2.51242712e+01
2.66587425e+01
2.86854050e+01
3.09328760e+01
3.03827238e+01
2.98505169e+01
2.76417860e+01
2.56287696e+01
2.46207163e+01
1.93837865e+01
2.00610416e+01
2.08321218e+01
2.21972034e+01
2.36756181e+01
2.36946649e+01
2.37102982e+01
2.46200197e+01
2.56293029e+01
2.50308958e+01
2.44994494e+01
2.17492567e+01
1.72855997e+01
1.76703718e+01
1.80681828e+01
1.83399107e+01
1.86178175e+01
1.83712642e+01
1.81825771e+01
1.68345183e+01
1.56207170e+01
1.63855141e+01
1.54814897e+01
1.53269609e+01
1.52112809e+01
1.54137359e+01
1.56209020e+01
1.68349591e+01
1.81828910e+01
1.90474701e+01
1.99760895e+01
1.86874873e+01
1.75463969e+01
1.68356837e+01
1.61642365e+01
1.60950261e+01
1.60254738e+01
1.57489395e+01
1.59729471e+01
1.60417725e+01
1.61640968e+01
1.68356765e+01
1.75463426e+01
1.82242448e+01
1.89455331e+01
1.83573871e+01
1.78145727e+01
1.73014164e+01
1.68119258e+01
1.63849880e+01
1.30887109e+01
1.44342886e+01
1.60259726e+01
1.60945601e+01
1.61644731e+01
1.60418214e+01
1.59724653e+01
1.43567692e+01
1.29981788e+01
1.30198912e+01
1.09686269e+01
1.09916333e+01
1.10159091e+01
1.15726867e+01
1.21868848e+01
1.24094964e+01
1.26395450e+01
1.28508613e+01
1.30885158e+01
1.30190443e+01
1.29978953e+01
1.28104208e+01
1.26270999e+01
1.23874855e+01
1.21559093e+01
1.15067134e+01
1.05388053e+01
1.03370620e+01
1.01556049e+01
1.05428856e+01
1.09686235e+01
1.15058584e+01
1.21562228e+01
1.13065178e+01
9.37381765e+00
9.37438331e+00
9.37727846e+00
9.75362417e+00
1.01534830e+01
1.03407627e+01
1.05380517e+01
9.93093697e+00
2.98483585e+01
3.03826685e+01
3.09320636e+01
3.32319237e+01
3.57380866e+01
3.55291806e+01
3.53301531e+01
3.45481012e+01
3.37938772e+01
3.33645021e+01
3.29390034e+01
3.13073134e+01
2.44988692e+01
2.50350520e+01
2.56280041e+01
2.76409370e+01
2.98488623e+01
3.13030006e+01
3.29384603e+01
3.06942036e+01
2.87620033e+01
2.70218385e+01
2.54102684e+01
2.51953116e+01
2.49882334e+01
2.47026369e+01
1.81820659e+01
1.83719436e+01
1.86176260e+01
1.89946943e+01
1.93832180e+01
2.17497826e+01
2.44992922e+01
2.47051220e+01
2.49879989e+01
2.23076652e+01
1.99760697e+01
1.90480203e+01
1.89468021e+01
1.82248051e+01
1.75463852e+01
1.86870544e+01
1.99761074e+01
2.23113839e+01
2.49862369e+01
2.51964829e+01
2.54082888e+01
2.36091270e+01
2.20707218e+01
2.04286113e+01
1.78142456e+01
1.83577278e+01
1.89448848e+01
2.04313433e+01
2.20706769e+01
2.20213175e+01
2.19690850e+01
2.16110518e+01
2.12694413e+01
1.94444609e+01
1.74413570e+01
1.71203614e+01
1.68115524e+01
1.73015380e+01
1.78142198e+01
1.94449106e+01
2.12691724e+01
2.12604085e+01
2.12520809e+01
1.92158054e+01
1.75441768e+01
1.74771730e+01
1.74414162e+01
1.92153016e+01
2.12521373e+01
2.12053178e+01
2.11620980e+01
2.10693303e+01
2.09801641e+01
2.07397117e+01
2.05115880e+01
1.94290931e+01
1.84487264e+01
1.79898458e+01
1.26292333e+01
1.28074608e+01
1.29982394e+01
1.43564991e+01
1.59728711e+01
1.63844182e+01
1.68127683e+01
1.71195813e+01
1.74415802e+01
1.74753026e+01
1.75447519e+01
1.56772703e+01
1.40672752e+01
1.33183635e+01
1.40673683e+01
1.56773054e+01
1.75449395e+01
1.79876557e+01
1.84506496e+01
1.85032943e+01
1.85636503e+01
1.79755599e+01
1.74404446e+01
1.56546756e+01
3.53271546e+01
3.55317856e+01
3.57374545e+01
3.67033119e+01
3.76992854e+01
3.74867390e+01
3.72773385e+01
3.62838930e+01
3.37929200e+01
3.45488638e+01
3.53273167e+01
3.62833516e+01
3.72775738e+01
3.66198212e+01
3.59795121e+01
3.48633017e+01
2.87622507e+01
3.06985871e+01
3.29375045e+01
3.33601478e+01
3.37978893e+01
3.48554377e+01
3.59804360e+01
3.27634655e+01
2.98996224e+01
2.93205700e+01
2.19744860e+01
2.20140504e+01
2.20732826e+01
2.36060510e+01
2.54085654e+01
2.70253944e+01
2.87665603e+01
2.93230737e+01
2.99001429e+01
2.68780548e+01
2.42797124e+01
2.30874707e+01
2.11621209e+01
2.12051047e+01
2.12516045e+01
2.12610943e+01
2.12695961e+01
2.16124366e+01
2.19695113e+01
2.30913213e+01
2.42802120e+01
2.36215894e+01
2.29999636e+01
2.20547072e+01
2.09803263e+01
2.10693330e+01
2.11617902e+01
2.20557556e+01
2.29997704e+01
2.27907037e+01
2.25860359e+01
2.17638862e+01
2.05114443e+01
2.07395322e+01
2.09803452e+01
2.17637048e+01
2.25860329e+01
2.22021232e+01
2.18329082e+01
2.11575414e+01
1.85630136e+01
1.85039531e+01
1.84485032e+01
1.94291873e+01
2.05114450e+01
2.11560572e+01
2.18330075e+01
2.08840270e+01
2.00142820e+01
1.92672384e+01
1.74407175e+01
1.79784848e+01
1.85620854e+01
1.92685219e+01
2.00146824e+01
1.94127962e+01
1.88516569e+01
1.81287213e+01
 
