# vtk DataFile Version 3.0 
Date: 3/21/2016   Time: 14:1
ASCII 
DATASET UNSTRUCTURED_GRID 
 
POINTS 896 float 
0.929928 0.000000 0.000000 
0.964964 0.000000 0.000000 
1.000000 0.000000 0.000000 
1.000000 0.037936 0.000000 
1.000000 0.075873 0.000000 
0.984088 0.075873 0.000000 
0.968175 0.075873 0.000000 
0.949051 0.037936 0.000000 
0.784284 0.000000 0.000000 
0.831217 0.000000 0.000000 
0.878150 0.000000 0.000000 
0.857031 0.025243 0.000000 
0.835913 0.050486 0.000000 
0.810099 0.047531 0.000000 
0.784284 0.044576 0.000000 
0.784284 0.022288 0.000000 
0.723686 0.000000 0.000000 
0.753985 0.000000 0.000000 
0.784284 0.000000 0.000000 
0.784284 0.022288 0.000000 
0.784284 0.044576 0.000000 
0.753985 0.064166 0.000000 
0.723686 0.083757 0.000000 
0.723686 0.041878 0.000000 
0.689151 0.000000 0.000000 
0.706419 0.000000 0.000000 
0.723686 0.000000 0.000000 
0.723686 0.041878 0.000000 
0.723686 0.083757 0.000000 
0.718729 0.089429 0.000000 
0.713772 0.095101 0.000000 
0.701461 0.092792 0.000000 
0.689151 0.090482 0.000000 
0.689151 0.045241 0.000000 
0.614296 0.000000 0.000000 
0.651723 0.000000 0.000000 
0.689151 0.000000 0.000000 
0.689151 0.045241 0.000000 
0.689151 0.090482 0.000000 
0.651723 0.087890 0.000000 
0.614296 0.085298 0.000000 
0.614296 0.042649 0.000000 
0.424986 0.029193 0.000000 
0.424986 0.014597 0.000000 
0.424986 0.000000 0.000000 
0.519641 0.000000 0.000000 
0.614296 0.000000 0.000000 
0.614296 0.042649 0.000000 
0.614296 0.085298 0.000000 
0.580392 0.107350 0.000000 
0.546489 0.129401 0.000000 
0.522694 0.128201 0.000000 
0.498899 0.127000 0.000000 
0.473919 0.112687 0.000000 
0.448939 0.098373 0.000000 
0.436962 0.063783 0.000000 
0.207535 0.000000 0.000000 
0.316261 0.000000 0.000000 
0.424986 0.000000 0.000000 
0.424986 0.014597 0.000000 
0.424986 0.029193 0.000000 
0.316261 0.040535 0.000000 
0.207535 0.051876 0.000000 
0.207535 0.025938 0.000000 
0.057556 0.000000 0.000000 
0.132545 0.000000 0.000000 
0.207535 0.000000 0.000000 
0.207535 0.025938 0.000000 
0.207535 0.051876 0.000000 
0.200985 0.067049 0.000000 
0.194434 0.082222 0.000000 
0.154334 0.098403 0.000000 
0.114234 0.114583 0.000000 
0.085895 0.088183 0.000000 
0.057556 0.061784 0.000000 
0.057556 0.030892 0.000000 
0.000000 0.000000 0.000000 
0.028778 0.000000 0.000000 
0.057556 0.000000 0.000000 
0.057556 0.030892 0.000000 
0.057556 0.061784 0.000000 
0.028778 0.061784 0.000000 
0.000000 0.061784 0.000000 
0.000000 0.030892 0.000000 
0.968175 0.075873 0.000000 
0.984088 0.075873 0.000000 
1.000000 0.075873 0.000000 
1.000000 0.125996 0.000000 
1.000000 0.176120 0.000000 
0.989860 0.176120 0.000000 
0.979719 0.176120 0.000000 
0.951790 0.151947 0.000000 
0.923860 0.127774 0.000000 
0.946017 0.101823 0.000000 
0.835913 0.050486 0.000000 
0.857031 0.025243 0.000000 
0.878150 0.000000 0.000000 
0.904039 0.000000 0.000000 
0.929928 0.000000 0.000000 
0.949051 0.037936 0.000000 
0.968175 0.075873 0.000000 
0.946017 0.101823 0.000000 
0.923860 0.127774 0.000000 
0.921152 0.129101 0.000000 
0.918443 0.130429 0.000000 
0.896570 0.128495 0.000000 
0.874697 0.126561 0.000000 
0.855305 0.088524 0.000000 
0.713772 0.095101 0.000000 
0.718729 0.089429 0.000000 
0.723686 0.083757 0.000000 
0.753985 0.064166 0.000000 
0.784284 0.044576 0.000000 
0.810099 0.047531 0.000000 
0.835913 0.050486 0.000000 
0.855305 0.088524 0.000000 
0.874697 0.126561 0.000000 
0.828969 0.156128 0.000000 
0.783241 0.185694 0.000000 
0.775277 0.187101 0.000000 
0.767313 0.188508 0.000000 
0.740542 0.141805 0.000000 
0.546489 0.129401 0.000000 
0.580392 0.107350 0.000000 
0.614296 0.085298 0.000000 
0.651723 0.087890 0.000000 
0.689151 0.090482 0.000000 
0.701461 0.092792 0.000000 
0.713772 0.095101 0.000000 
0.740542 0.141805 0.000000 
0.767313 0.188508 0.000000 
0.754760 0.214973 0.000000 
0.742207 0.241438 0.000000 
0.683159 0.248227 0.000000 
0.624110 0.255015 0.000000 
0.585300 0.192208 0.000000 
0.416045 0.121458 0.000000 
0.432492 0.109916 0.000000 
0.448939 0.098373 0.000000 
0.473919 0.112687 0.000000 
0.498899 0.127000 0.000000 
0.482727 0.211961 0.000000 
0.466556 0.296921 0.000000 
0.442392 0.299429 0.000000 
0.418227 0.301937 0.000000 
0.398193 0.279512 0.000000 
0.378158 0.257086 0.000000 
0.374512 0.242197 0.000000 
0.370865 0.227308 0.000000 
0.393455 0.174383 0.000000 
0.265790 0.154449 0.000000 
0.340917 0.137954 0.000000 
0.416045 0.121458 0.000000 
0.393455 0.174383 0.000000 
0.370865 0.227308 0.000000 
0.366778 0.227372 0.000000 
0.362691 0.227435 0.000000 
0.313629 0.210486 0.000000 
0.264567 0.193538 0.000000 
0.265178 0.173994 0.000000 
0.194434 0.082222 0.000000 
0.200985 0.067049 0.000000 
0.207535 0.051876 0.000000 
0.316261 0.040535 0.000000 
0.424986 0.029193 0.000000 
0.436962 0.063783 0.000000 
0.448939 0.098373 0.000000 
0.432492 0.109916 0.000000 
0.416045 0.121458 0.000000 
0.340917 0.137954 0.000000 
0.265790 0.154449 0.000000 
0.230112 0.118336 0.000000 
0.103073 0.144340 0.000000 
0.108654 0.129462 0.000000 
0.114234 0.114583 0.000000 
0.154334 0.098403 0.000000 
0.194434 0.082222 0.000000 
0.230112 0.118336 0.000000 
0.265790 0.154449 0.000000 
0.265178 0.173994 0.000000 
0.264567 0.193538 0.000000 
0.264269 0.194659 0.000000 
0.263972 0.195779 0.000000 
0.237941 0.220941 0.000000 
0.211910 0.246103 0.000000 
0.157492 0.195221 0.000000 
0.000000 0.061784 0.000000 
0.028778 0.061784 0.000000 
0.057556 0.061784 0.000000 
0.085895 0.088183 0.000000 
0.114234 0.114583 0.000000 
0.108654 0.129462 0.000000 
0.103073 0.144340 0.000000 
0.101594 0.146541 0.000000 
0.100115 0.148741 0.000000 
0.084033 0.163508 0.000000 
0.067950 0.178275 0.000000 
0.033975 0.178275 0.000000 
0.000000 0.178275 0.000000 
0.000000 0.120029 0.000000 
0.979719 0.176120 0.000000 
0.989860 0.176120 0.000000 
1.000000 0.176120 0.000000 
1.000000 0.198622 0.000000 
1.000000 0.221123 0.000000 
0.989422 0.221123 0.000000 
0.978845 0.221123 0.000000 
0.979282 0.198622 0.000000 
0.918443 0.130429 0.000000 
0.921152 0.129101 0.000000 
0.923860 0.127774 0.000000 
0.951790 0.151947 0.000000 
0.979719 0.176120 0.000000 
0.979282 0.198622 0.000000 
0.978845 0.221123 0.000000 
0.950647 0.248937 0.000000 
0.922450 0.276752 0.000000 
0.919152 0.270273 0.000000 
0.915853 0.263794 0.000000 
0.917148 0.197112 0.000000 
0.874697 0.126561 0.000000 
0.896570 0.128495 0.000000 
0.918443 0.130429 0.000000 
0.917148 0.197112 0.000000 
0.915853 0.263794 0.000000 
0.849547 0.224744 0.000000 
0.783241 0.185694 0.000000 
0.828969 0.156128 0.000000 
0.498899 0.127000 0.000000 
0.522694 0.128201 0.000000 
0.546489 0.129401 0.000000 
0.585300 0.192208 0.000000 
0.624110 0.255015 0.000000 
0.619752 0.265350 0.000000 
0.615393 0.275685 0.000000 
0.590810 0.298381 0.000000 
0.566227 0.321077 0.000000 
0.541070 0.333402 0.000000 
0.515912 0.345728 0.000000 
0.491234 0.321325 0.000000 
0.466556 0.296921 0.000000 
0.482727 0.211961 0.000000 
0.339391 0.275229 0.000000 
0.358775 0.266157 0.000000 
0.378158 0.257086 0.000000 
0.398193 0.279512 0.000000 
0.418227 0.301937 0.000000 
0.415196 0.304977 0.000000 
0.412164 0.308017 0.000000 
0.378618 0.316097 0.000000 
0.345072 0.324176 0.000000 
0.338097 0.316369 0.000000 
0.331122 0.308561 0.000000 
0.335257 0.291895 0.000000 
0.362691 0.227435 0.000000 
0.366778 0.227372 0.000000 
0.370865 0.227308 0.000000 
0.374512 0.242197 0.000000 
0.378158 0.257086 0.000000 
0.358775 0.266157 0.000000 
0.339391 0.275229 0.000000 
0.320759 0.265505 0.000000 
0.302126 0.255781 0.000000 
0.332409 0.241608 0.000000 
0.263972 0.195779 0.000000 
0.264269 0.194659 0.000000 
0.264567 0.193538 0.000000 
0.313629 0.210486 0.000000 
0.362691 0.227435 0.000000 
0.332409 0.241608 0.000000 
0.302126 0.255781 0.000000 
0.299287 0.255582 0.000000 
0.296448 0.255382 0.000000 
0.280210 0.225581 0.000000 
0.100115 0.148741 0.000000 
0.101594 0.146541 0.000000 
0.103073 0.144340 0.000000 
0.157492 0.195221 0.000000 
0.211910 0.246103 0.000000 
0.205307 0.265844 0.000000 
0.198703 0.285585 0.000000 
0.188935 0.286973 0.000000 
0.179166 0.288361 0.000000 
0.167872 0.285839 0.000000 
0.156577 0.283316 0.000000 
0.128346 0.216029 0.000000 
0.000000 0.178275 0.000000 
0.033975 0.178275 0.000000 
0.067950 0.178275 0.000000 
0.063236 0.209435 0.000000 
0.058522 0.240595 0.000000 
0.056141 0.242735 0.000000 
0.053761 0.244875 0.000000 
0.026880 0.244875 0.000000 
0.000000 0.244875 0.000000 
0.000000 0.211575 0.000000 
0.978845 0.221123 0.000000 
0.989422 0.221123 0.000000 
1.000000 0.221123 0.000000 
1.000000 0.253869 0.000000 
1.000000 0.286616 0.000000 
0.961801 0.286616 0.000000 
0.923602 0.286616 0.000000 
0.923026 0.281684 0.000000 
0.922450 0.276752 0.000000 
0.950647 0.248937 0.000000 
0.742207 0.241438 0.000000 
0.754760 0.214973 0.000000 
0.767313 0.188508 0.000000 
0.775277 0.187101 0.000000 
0.783241 0.185694 0.000000 
0.849547 0.224744 0.000000 
0.915853 0.263794 0.000000 
0.919152 0.270273 0.000000 
0.922450 0.276752 0.000000 
0.923026 0.281684 0.000000 
0.923602 0.286616 0.000000 
0.913052 0.310580 0.000000 
0.902501 0.334543 0.000000 
0.828742 0.304854 0.000000 
0.754983 0.275164 0.000000 
0.748595 0.258301 0.000000 
0.615393 0.275685 0.000000 
0.619752 0.265350 0.000000 
0.624110 0.255015 0.000000 
0.683159 0.248227 0.000000 
0.742207 0.241438 0.000000 
0.748595 0.258301 0.000000 
0.754983 0.275164 0.000000 
0.743775 0.332577 0.000000 
0.732568 0.389991 0.000000 
0.707460 0.385982 0.000000 
0.682352 0.381973 0.000000 
0.648872 0.328829 0.000000 
0.345072 0.324176 0.000000 
0.378618 0.316097 0.000000 
0.412164 0.308017 0.000000 
0.390651 0.383691 0.000000 
0.369138 0.459365 0.000000 
0.347834 0.443018 0.000000 
0.326529 0.426671 0.000000 
0.322047 0.409265 0.000000 
0.317564 0.391859 0.000000 
0.331318 0.358017 0.000000 
0.255086 0.321925 0.000000 
0.269067 0.310554 0.000000 
0.283048 0.299183 0.000000 
0.307085 0.303872 0.000000 
0.331122 0.308561 0.000000 
0.338097 0.316369 0.000000 
0.345072 0.324176 0.000000 
0.331318 0.358017 0.000000 
0.317564 0.391859 0.000000 
[...]
CELL_DATA 81
FIELD FieldData 1
material 1 81 int
1
1
1
1
1
1
1
1
1
1
1
1
1
1
1
1
1
1
1
1
1
1
1
1
1
1
1
1
1
1
1
1
1
1
1
1
1
1
1
1
1
1
1
1
1
1
1
1
1
1
1
1
1
1
1
1
1
1
1
1
1
1
1
1
1
1
1
1
1
1
1
1
1
1
1
1
1
1
1
1
1
POINT_DATA 896 SCALARS flux_g1 double 
LOOKUP_TABLE   default 
1.75619611e+01
1.81936229e+01
1.88509391e+01
1.93311312e+01
1.98414908e+01
1.95339013e+01
1.92338613e+01
1.83656652e+01
1.50789785e+01
1.58424993e+01
1.66491210e+01
1.65824652e+01
1.65288010e+01
1.60512918e+01
1.55931184e+01
1.53288507e+01
1.41229516e+01
1.45910181e+01
1.50788614e+01
1.53296416e+01
1.55929211e+01
1.53256026e+01
1.50764929e+01
1.45784697e+01
1.35989999e+01
1.38572657e+01
1.41229680e+01
1.45788070e+01
1.50765129e+01
1.50649131e+01
1.50546828e+01
1.48316177e+01
1.46136204e+01
1.40814712e+01
1.25162062e+01
1.30412643e+01
1.35990179e+01
1.40809089e+01
1.46136874e+01
1.40022457e+01
1.34310454e+01
1.29519439e+01
1.03661534e+01
1.02246924e+01
1.00921863e+01
1.12149218e+01
1.25161728e+01
1.29489417e+01
1.34324923e+01
1.31860782e+01
1.29633620e+01
1.26169442e+01
1.22869860e+01
1.17962186e+01
1.13358215e+01
1.08300806e+01
7.86062217e+00
8.86286744e+00
1.00913111e+01
1.02243322e+01
1.03629574e+01
9.19852970e+00
8.27631314e+00
8.06118065e+00
6.66786228e+00
7.20784152e+00
7.86140887e+00
8.06306122e+00
8.28060447e+00
8.34200887e+00
8.41133190e+00
8.17592688e+00
7.97337693e+00
7.51268855e+00
7.10663794e+00
6.87309834e+00
6.28399935e+00
6.46646461e+00
6.66799790e+00
6.87500442e+00
7.10579180e+00
6.89141498e+00
6.69833681e+00
6.48025264e+00
1.92341696e+01
1.95338320e+01
1.98411443e+01
2.05264522e+01
2.12607862e+01
2.10583258e+01
2.08597321e+01
1.99554841e+01
1.91017595e+01
1.91600914e+01
1.65287864e+01
1.65825012e+01
1.66493311e+01
1.70971083e+01
1.75621755e+01
1.83657847e+01
1.92336741e+01
1.91603258e+01
1.91018860e+01
1.90695613e+01
1.90372164e+01
1.86030132e+01
1.81824972e+01
1.73233324e+01
1.50545395e+01
1.50655412e+01
1.50764883e+01
1.53258906e+01
1.55927615e+01
1.60518229e+01
1.65285838e+01
1.73238088e+01
1.81822459e+01
1.77517109e+01
1.73619261e+01
1.72430248e+01
1.71259751e+01
1.60376637e+01
1.29623270e+01
1.31868977e+01
1.34310975e+01
1.40023049e+01
1.46135876e+01
1.48318583e+01
1.50550643e+01
1.60379275e+01
1.71261611e+01
1.72670220e+01
1.74217336e+01
1.65065576e+01
1.56699693e+01
1.42163088e+01
1.11664655e+01
1.12493935e+01
1.13354819e+01
1.17956659e+01
1.22867254e+01
1.30046364e+01
1.38790654e+01
1.35736799e+01
1.32804469e+01
1.27265448e+01
1.22054738e+01
1.19823212e+01
1.17666897e+01
1.14387168e+01
9.78326306e+00
1.04158635e+01
1.11663322e+01
1.14401875e+01
1.17665073e+01
1.17173238e+01
1.16678955e+01
1.08742730e+01
1.01654535e+01
9.96960287e+00
8.41102277e+00
8.34057009e+00
8.27677373e+00
9.19711979e+00
1.03634266e+01
1.08267889e+01
1.13365475e+01
1.12479181e+01
1.11663241e+01
1.04162025e+01
9.78323386e+00
9.04959114e+00
8.13438432e+00
8.05237784e+00
7.97316755e+00
8.17664301e+00
8.41064359e+00
9.04936416e+00
9.78371336e+00
9.96950198e+00
1.01655055e+01
1.01738360e+01
1.01829949e+01
1.01634740e+01
1.01586506e+01
9.04208108e+00
6.69850610e+00
6.89053698e+00
7.10622382e+00
7.51283179e+00
7.97352043e+00
8.05107660e+00
8.13526545e+00
8.14214263e+00
8.14986582e+00
8.14140354e+00
8.14155377e+00
7.85760588e+00
7.60640542e+00
7.11887967e+00
2.08593771e+01
2.10589446e+01
2.12606973e+01
2.15940052e+01
2.19382361e+01
2.17244127e+01
2.15134508e+01
2.11800383e+01
1.90374508e+01
1.90697101e+01
1.91019636e+01
1.99553895e+01
2.08593841e+01
2.11799013e+01
2.15136013e+01
2.13734275e+01
2.12536218e+01
2.10879944e+01
2.09243924e+01
1.99263526e+01
1.81824846e+01
1.86036256e+01
1.90374563e+01
1.99263799e+01
2.09246686e+01
1.90365076e+01
1.73615059e+01
1.77520215e+01
1.22869819e+01
1.26175694e+01
1.29623312e+01
1.42169776e+01
1.56703259e+01
1.57404371e+01
1.58123445e+01
1.57339099e+01
1.56691679e+01
1.54522240e+01
1.52464134e+01
1.45398497e+01
1.38792289e+01
1.30044097e+01
1.19376539e+01
1.20677620e+01
1.22054706e+01
1.27264477e+01
1.32803427e+01
1.32782810e+01
1.32764032e+01
1.29294934e+01
1.26050701e+01
1.24187788e+01
1.22370874e+01
1.20840703e+01
1.16679914e+01
1.17172725e+01
1.17667518e+01
1.19820989e+01
1.22055776e+01
1.20678259e+01
1.19375636e+01
1.15940028e+01
1.12657797e+01
1.14587534e+01
1.01824595e+01
1.01739837e+01
1.01655943e+01
1.08741424e+01
1.16680038e+01
1.14586223e+01
1.12657533e+01
1.12303589e+01
1.11950405e+01
1.06685839e+01
8.14817441e+00
8.14114817e+00
8.13450287e+00
9.04180324e+00
1.01587303e+01
1.03010210e+01
1.04514279e+01
1.03628594e+01
1.02764183e+01
1.01315174e+01
9.99025423e+00
8.97689576e+00
7.60622683e+00
7.85867885e+00
8.14086129e+00
8.38070428e+00
8.64118589e+00
8.64161766e+00
8.64257887e+00
8.41340323e+00
8.20183302e+00
7.89143693e+00
2.15137460e+01
2.17239679e+01
2.19384281e+01
2.24427199e+01
2.29699950e+01
2.21824078e+01
2.14309488e+01
2.13417731e+01
2.12536749e+01
2.13736242e+01
1.74218029e+01
1.72676637e+01
1.71260858e+01
1.72430921e+01
1.73615429e+01
1.90362178e+01
2.09249453e+01
2.10879764e+01
2.12534729e+01
2.13421831e+01
2.14305777e+01
2.15990065e+01
2.17784712e+01
1.98442219e+01
1.81234956e+01
1.77675868e+01
1.58124715e+01
1.57402759e+01
1.56702926e+01
1.65057419e+01
1.74220824e+01
1.77669928e+01
1.81231656e+01
1.87597547e+01
1.94662139e+01
1.89533956e+01
1.84582264e+01
1.70633005e+01
1.26051563e+01
1.29294817e+01
1.32764340e+01
1.39530523e+01
1.47444121e+01
1.42153558e+01
1.37123056e+01
1.34155361e+01
1.31277851e+01
1.28545281e+01
1.14920724e+01
1.15170436e+01
1.15459727e+01
1.18820245e+01
1.22370582e+01
1.24188052e+01
1.26051213e+01
1.28548233e+01
1.31277202e+01
1.22671911e+01
1.11950344e+01
1.12302823e+01
1.12657356e+01
1.15940361e+01
1.19375403e+01
1.20841743e+01
1.22369915e+01
1.18821091e+01
1.15459395e+01
1.13654320e+01
1.01593015e+01
1.01630469e+01
1.01824330e+01
1.06684240e+01
1.11950943e+01
1.13655007e+01
1.15460450e+01
1.15170211e+01
1.14920957e+01
1.13603983e+01
1.12315351e+01
1.08303144e+01
1.04515656e+01
1.03012292e+01
8.14121529e+00
8.14184931e+00
8.14825475e+00
8.97672307e+00
9.99026093e+00
9.81450602e+00
9.65145163e+00
9.11983511e+00
8.64149725e+00
8.38019990e+00
8.20177963e+00
8.41389505e+00
8.64229422e+00
8.68039920e+00
8.72076211e+00
8.55719651e+00
8.40237575e+00
8.30073278e+00
2.14308976e+01
2.21818905e+01
2.29701662e+01
2.36769887e+01
2.44264748e+01
2.34210891e+01
2.24713715e+01
2.21195073e+01
2.17784807e+01
2.15989039e+01
1.81235086e+01
1.98440811e+01
2.17785265e+01
2.21198877e+01
2.24710678e+01
2.30382184e+01
2.36778863e+01
2.21964104e+01
2.08324469e+01
2.01338676e+01
1.94664688e+01
1.87593943e+01
1.56693488e+01
1.57339876e+01
1.58124500e+01
1.70632474e+01
1.84583627e+01
1.82404021e+01
1.80293939e+01
1.67930221e+01
1.32765149e+01
1.32784158e+01
1.32802868e+01
1.35735360e+01
1.38788938e+01
1.45397741e+01
1.52461519e+01
1.53464200e+01
1.54478551e+01
1.52138654e+01
1.50794698e+01
1.49106451e+01
1.47446428e+01
1.39527754e+01
1.12315904e+01
1.13606622e+01
1.14919758e+01
1.22671347e+01
1.31278034e+01
1.34151923e+01
1.37122955e+01
1.28891383e+01
1.21725849e+01
1.21139570e+01
1.20570949e+01
1.16181329e+01
1.02764564e+01
1.03637341e+01
1.04512515e+01
1.08306097e+01
1.12315860e+01
1.16178973e+01
1.20570556e+01
1.13802903e+01
1.07597612e+01
1.05070350e+01
9.65149083e+00
9.81414385e+00
9.99030194e+00
1.01312410e+01
1.02766324e+01
1.05069157e+01
1.07596862e+01
1.03554076e+01
9.98200284e+00
9.97246264e+00
9.96399129e+00
9.80315032e+00
8.86205722e+00
8.79017436e+00
8.72077172e+00
8.68076136e+00
8.64225173e+00
8.64178665e+00
8.64137547e+00
9.11986502e+00
9.65144951e+00
9.80311632e+00
9.96407770e+00
9.67572174e+00
9.40884057e+00
9.12703922e+00
8.40236358e+00
8.55722032e+00
8.72075665e+00
8.79013640e+00
8.86195168e+00
8.73509874e+00
8.61341651e+00
8.50649525e+00
2.24715722e+01
2.34200228e+01
2.44269165e+01
2.55016112e+01
2.66590766e+01
2.51276402e+01
2.37095340e+01
2.36925438e+01
2.36792638e+01
2.30378769e+01
1.80293752e+01
1.82406599e+01
1.84581424e+01
1.89530791e+01
1.94661795e+01
2.01334104e+01
2.08320156e+01
2.00615414e+01
1.93833990e+01
1.89956696e+01
1.86181640e+01
1.83403770e+01
1.80684470e+01
1.80369645e+01
1.54478090e+01
1.53460446e+01
1.52466448e+01
1.54519244e+01
1.56694062e+01
1.67927683e+01
1.80294911e+01
1.80371379e+01
1.80684238e+01
1.76715557e+01
1.72856702e+01
1.63299458e+01
1.54478290e+01
1.63298226e+01
1.72857998e+01
1.63852178e+01
1.56205846e+01
1.54142238e+01
1.52108447e+01
1.51453680e+01
1.50795709e+01
1.52138196e+01
1.21873561e+01
1.21797412e+01
1.21727898e+01
1.28886387e+01
1.37123317e+01
1.42150702e+01
1.47445448e+01
1.49101773e+01
1.50790772e+01
1.51450873e+01
1.52106350e+01
1.53264907e+01
1.54818432e+01
1.39528071e+01
1.26390556e+01
1.24091274e+01
1.30887371e+01
1.28508092e+01
1.26392014e+01
1.39525475e+01
1.54818909e+01
1.57487855e+01
1.60256658e+01
1.44340112e+01
9.98199107e+00
1.03553060e+01
1.07596720e+01
1.13805826e+01
1.20568149e+01
1.21145136e+01
1.21722023e+01
1.21800445e+01
1.21872022e+01
1.15718627e+01
1.10156959e+01
1.04756064e+01
9.37706057e+00
9.39100685e+00
9.40882794e+00
9.67584913e+00
9.96418624e+00
9.97299431e+00
9.98198393e+00
1.04755338e+01
1.10154643e+01
1.09920815e+01
1.09694030e+01
1.05438841e+01
1.01539475e+01
9.75284426e+00
8.61332566e+00
8.73469215e+00
8.86193457e+00
9.12714438e+00
9.40885085e+00
9.39136788e+00
9.37715051e+00
9.37483014e+00
9.37332148e+00
8.98056764e+00
2.37099932e+01
2.51241629e+01
2.66588571e+01
2.86842898e+01
3.09331145e+01
3.03831926e+01
2.98506902e+01
2.76432602e+01
2.56286633e+01
2.46202483e+01
1.93835448e+01
2.00612042e+01
2.08322427e+01
2.21971725e+01
2.36760707e+01
2.36938417e+01
2.37107857e+01
2.46199652e+01
2.56289935e+01
2.50314488e+01
2.44992606e+01
2.17493806e+01
1.72858309e+01
1.76708852e+01
1.80686922e+01
1.83400622e+01
1.86181405e+01
1.83705529e+01
1.81826465e+01
1.68347940e+01
1.56206291e+01
1.63852516e+01
1.54815541e+01
1.53262476e+01
1.52114559e+01
1.54132202e+01
1.56205233e+01
1.68353697e+01
1.81829779e+01
1.90474949e+01
1.99759674e+01
1.86876919e+01
1.75462143e+01
1.68353846e+01
1.61641812e+01
1.60946790e+01
1.60243037e+01
1.57493612e+01
1.59730837e+01
1.60416428e+01
1.61639304e+01
1.68353207e+01
1.75462728e+01
1.82234145e+01
1.89455000e+01
1.83581488e+01
1.78144400e+01
1.73015063e+01
1.68119222e+01
1.63851464e+01
1.30888117e+01
1.44341973e+01
1.60256393e+01
1.60941195e+01
1.61644065e+01
1.60417274e+01
1.59724371e+01
1.43570097e+01
1.29980787e+01
1.30199578e+01
1.09686295e+01
1.09916309e+01
1.10159369e+01
1.15722142e+01
1.21871268e+01
1.24093730e+01
1.26396680e+01
1.28505103e+01
1.30888447e+01
1.30195924e+01
1.29975119e+01
1.28097274e+01
1.26273954e+01
1.23877589e+01
1.21561356e+01
1.15067347e+01
1.05385393e+01
1.03363840e+01
1.01552217e+01
1.05433366e+01
1.09687840e+01
1.15056519e+01
1.21563276e+01
1.13071052e+01
9.37372036e+00
9.37461593e+00
9.37745332e+00
9.75317293e+00
1.01534783e+01
1.03405675e+01
1.05379020e+01
9.93098195e+00
2.98475601e+01
3.03825814e+01
3.09326892e+01
3.32310855e+01
3.57379387e+01
3.55292625e+01
3.53288382e+01
3.45484902e+01
3.37937030e+01
3.33638662e+01
3.29389677e+01
3.13081386e+01
2.44982727e+01
2.50350261e+01
2.56277499e+01
2.76419295e+01
2.98483837e+01
3.13021654e+01
3.29392144e+01
3.06937244e+01
2.87622661e+01
2.70217910e+01
2.54090934e+01
2.51963943e+01
2.49880739e+01
2.47017430e+01
1.81823122e+01
1.83710696e+01
1.86180252e+01
1.89950294e+01
1.93834126e+01
2.17493723e+01
2.44993361e+01
2.47051592e+01
2.49880904e+01
2.23078984e+01
1.99761950e+01
1.90479799e+01
1.89467073e+01
1.82243700e+01
1.75462785e+01
1.86870938e+01
1.99757985e+01
2.23106798e+01
2.49868249e+01
2.51961969e+01
2.54084677e+01
2.36094179e+01
2.20708011e+01
2.04294827e+01
1.78143475e+01
1.83582358e+01
1.89449530e+01
2.04322032e+01
2.20711287e+01
2.20193420e+01
2.19692414e+01
2.16115258e+01
2.12695181e+01
1.94435201e+01
1.74414404e+01
1.71199637e+01
1.68115045e+01
1.73014583e+01
1.78142839e+01
1.94437509e+01
2.12694442e+01
2.12608022e+01
2.12523173e+01
1.92153832e+01
1.75443951e+01
1.74771057e+01
1.74414923e+01
1.92153844e+01
2.12522562e+01
2.12049968e+01
2.11618313e+01
2.10697033e+01
2.09800049e+01
2.07397612e+01
2.05113757e+01
1.94291263e+01
1.84486207e+01
1.79896430e+01
1.26291483e+01
1.28080553e+01
1.29979252e+01
1.43571559e+01
1.59726272e+01
1.63849078e+01
1.68127992e+01
1.71195124e+01
1.74416564e+01
1.74757990e+01
1.75446934e+01
1.56773466e+01
1.40676149e+01
1.33170458e+01
1.40673430e+01
1.56774156e+01
1.75453688e+01
1.79877591e+01
1.84502723e+01
1.85027570e+01
1.85637693e+01
1.79760921e+01
1.74399675e+01
1.56551077e+01
3.53271484e+01
3.55318632e+01
3.57376084e+01
3.67032850e+01
3.76991719e+01
3.74866816e+01
3.72772377e+01
3.62839719e+01
3.37925747e+01
3.45490843e+01
3.53273823e+01
3.62833226e+01
3.72774489e+01
3.66194893e+01
3.59791649e+01
3.48639302e+01
2.87619643e+01
3.06984993e+01
3.29377999e+01
3.33605118e+01
3.37972763e+01
3.48565190e+01
3.59795673e+01
3.27636138e+01
2.98996557e+01
2.93208233e+01
2.19738549e+01
2.20165325e+01
2.20730305e+01
2.36081806e+01
2.54077398e+01
2.70257228e+01
2.87665000e+01
2.93225024e+01
2.99005900e+01
2.68763030e+01
2.42804075e+01
2.30837317e+01
2.11620089e+01
2.12052310e+01
2.12515560e+01
2.12608529e+01
2.12696718e+01
2.16124642e+01
2.19694027e+01
2.30909224e+01
2.42805188e+01
2.36216534e+01
2.29998592e+01
2.20550968e+01
2.09803551e+01
2.10693007e+01
2.11617193e+01
2.20559609e+01
2.29997408e+01
2.27907073e+01
2.25860391e+01
2.17639468e+01
2.05112924e+01
2.07395998e+01
2.09803853e+01
2.17637015e+01
2.25860461e+01
2.22020858e+01
2.18329437e+01
2.11574910e+01
1.85628772e+01
1.85037966e+01
1.84484705e+01
1.94293452e+01
2.05114017e+01
2.11561128e+01
2.18330579e+01
2.08837417e+01
2.00140822e+01
1.92675175e+01
1.74404900e+01
1.79788942e+01
1.85618855e+01
1.92686464e+01
2.00147018e+01
1.94127995e+01
1.88515348e+01
1.81285539e+01
 
