# vtk DataFile Version 3.0 
Date: 3/21/2016   Time: 14:1
ASCII 
DATASET UNSTRUCTURED_GRID 
 
POINTS 512 float 
1.000000 0.000000 0.000000 
1.000000 0.080221 0.000000 
1.000000 0.160441 0.000000 
0.966941 0.155668 0.000000 
0.933882 0.150896 0.000000 
0.942203 0.075448 0.000000 
0.950524 0.000000 0.000000 
0.975262 0.000000 0.000000 
1.000000 0.160441 0.000000 
1.000000 0.393069 0.000000 
1.000000 0.625698 0.000000 
0.967703 0.537498 0.000000 
0.935406 0.449299 0.000000 
0.934644 0.300098 0.000000 
0.933882 0.150896 0.000000 
0.966941 0.155668 0.000000 
1.000000 0.625698 0.000000 
1.000000 0.660959 0.000000 
1.000000 0.696219 0.000000 
0.969478 0.670855 0.000000 
0.938956 0.645490 0.000000 
0.937181 0.547395 0.000000 
0.935406 0.449299 0.000000 
0.967703 0.537498 0.000000 
1.000000 0.696219 0.000000 
1.000000 0.744380 0.000000 
1.000000 0.792541 0.000000 
0.970563 0.764327 0.000000 
0.941126 0.736113 0.000000 
0.940041 0.690802 0.000000 
0.938956 0.645490 0.000000 
0.969478 0.670855 0.000000 
1.000000 0.792541 0.000000 
1.000000 0.800485 0.000000 
1.000000 0.808429 0.000000 
0.953354 0.785374 0.000000 
0.906709 0.762320 0.000000 
0.923917 0.749216 0.000000 
0.941126 0.736113 0.000000 
0.970563 0.764327 0.000000 
1.000000 0.808429 0.000000 
1.000000 0.827440 0.000000 
1.000000 0.846451 0.000000 
0.939477 0.851819 0.000000 
0.878954 0.857187 0.000000 
0.892832 0.809754 0.000000 
0.906709 0.762320 0.000000 
0.953354 0.785374 0.000000 
1.000000 0.846451 0.000000 
1.000000 0.872240 0.000000 
1.000000 0.898030 0.000000 
0.867185 0.927217 0.000000 
0.734371 0.956404 0.000000 
0.806663 0.906796 0.000000 
0.878954 0.857187 0.000000 
0.939477 0.851819 0.000000 
1.000000 0.898030 0.000000 
1.000000 0.949015 0.000000 
1.000000 1.000000 0.000000 
0.904705 1.000000 0.000000 
0.809411 1.000000 0.000000 
0.771891 0.978202 0.000000 
0.734371 0.956404 0.000000 
0.867185 0.927217 0.000000 
0.950524 0.000000 0.000000 
0.942203 0.075448 0.000000 
0.933882 0.150896 0.000000 
0.878210 0.141512 0.000000 
0.822538 0.132127 0.000000 
0.799459 0.066063 0.000000 
0.776379 0.000000 0.000000 
0.863452 0.000000 0.000000 
0.933882 0.150896 0.000000 
0.934644 0.300098 0.000000 
0.935406 0.449299 0.000000 
0.912961 0.388005 0.000000 
0.890516 0.326711 0.000000 
0.856527 0.229419 0.000000 
0.822538 0.132127 0.000000 
0.878210 0.141512 0.000000 
0.935406 0.449299 0.000000 
0.937181 0.547395 0.000000 
0.938956 0.645490 0.000000 
0.912161 0.533697 0.000000 
0.885366 0.421905 0.000000 
0.887941 0.374308 0.000000 
0.890516 0.326711 0.000000 
0.912961 0.388005 0.000000 
0.938956 0.645490 0.000000 
0.940041 0.690802 0.000000 
0.941126 0.736113 0.000000 
0.906540 0.702964 0.000000 
0.871955 0.669816 0.000000 
0.878661 0.545860 0.000000 
0.885366 0.421905 0.000000 
0.912161 0.533697 0.000000 
0.941126 0.736113 0.000000 
0.923917 0.749216 0.000000 
0.906709 0.762320 0.000000 
0.826585 0.781956 0.000000 
0.746460 0.801591 0.000000 
0.809208 0.735704 0.000000 
0.871955 0.669816 0.000000 
0.906540 0.702964 0.000000 
0.906709 0.762320 0.000000 
0.892832 0.809754 0.000000 
0.878954 0.857187 0.000000 
0.777680 0.866170 0.000000 
0.676406 0.875152 0.000000 
0.711433 0.838372 0.000000 
0.746460 0.801591 0.000000 
0.826585 0.781956 0.000000 
0.878954 0.857187 0.000000 
0.806663 0.906796 0.000000 
0.734371 0.956404 0.000000 
0.700061 0.964942 0.000000 
0.665751 0.973479 0.000000 
0.671078 0.924316 0.000000 
0.676406 0.875152 0.000000 
0.777680 0.866170 0.000000 
0.734371 0.956404 0.000000 
0.771891 0.978202 0.000000 
0.809411 1.000000 0.000000 
0.736144 1.000000 0.000000 
0.662877 1.000000 0.000000 
0.664314 0.986739 0.000000 
0.665751 0.973479 0.000000 
0.700061 0.964942 0.000000 
0.776379 0.000000 0.000000 
0.799459 0.066063 0.000000 
0.822538 0.132127 0.000000 
0.771515 0.127270 0.000000 
0.720492 0.122413 0.000000 
0.725706 0.061206 0.000000 
0.730920 0.000000 0.000000 
0.753650 0.000000 0.000000 
0.822538 0.132127 0.000000 
0.856527 0.229419 0.000000 
0.890516 0.326711 0.000000 
0.817821 0.323481 0.000000 
0.745127 0.320251 0.000000 
0.732810 0.221332 0.000000 
0.720492 0.122413 0.000000 
0.771515 0.127270 0.000000 
0.890516 0.326711 0.000000 
0.887941 0.374308 0.000000 
0.885366 0.421905 0.000000 
0.852303 0.403485 0.000000 
0.819241 0.385065 0.000000 
0.782184 0.352658 0.000000 
0.745127 0.320251 0.000000 
0.817821 0.323481 0.000000 
0.885366 0.421905 0.000000 
0.878661 0.545860 0.000000 
0.871955 0.669816 0.000000 
0.849340 0.648140 0.000000 
0.826724 0.626464 0.000000 
0.822982 0.505764 0.000000 
0.819241 0.385065 0.000000 
0.852303 0.403485 0.000000 
0.871955 0.669816 0.000000 
0.809208 0.735704 0.000000 
0.746460 0.801591 0.000000 
0.721275 0.718855 0.000000 
0.696089 0.636119 0.000000 
0.761406 0.631292 0.000000 
0.826724 0.626464 0.000000 
0.849340 0.648140 0.000000 
0.746460 0.801591 0.000000 
0.711433 0.838372 0.000000 
0.676406 0.875152 0.000000 
0.655986 0.803413 0.000000 
0.635565 0.731674 0.000000 
0.665827 0.683897 0.000000 
0.696089 0.636119 0.000000 
0.721275 0.718855 0.000000 
0.676406 0.875152 0.000000 
0.671078 0.924316 0.000000 
0.665751 0.973479 0.000000 
0.613871 0.903801 0.000000 
0.561991 0.834122 0.000000 
0.598778 0.782898 0.000000 
0.635565 0.731674 0.000000 
0.655986 0.803413 0.000000 
0.665751 0.973479 0.000000 
0.664314 0.986739 0.000000 
0.662877 1.000000 0.000000 
0.608032 1.000000 0.000000 
0.553186 1.000000 0.000000 
0.557589 0.917061 0.000000 
0.561991 0.834122 0.000000 
0.613871 0.903801 0.000000 
0.730920 0.000000 0.000000 
0.725706 0.061206 0.000000 
0.720492 0.122413 0.000000 
0.703614 0.159185 0.000000 
0.686736 0.195956 0.000000 
0.697534 0.097978 0.000000 
0.708332 0.000000 0.000000 
0.719626 0.000000 0.000000 
0.720492 0.122413 0.000000 
0.732810 0.221332 0.000000 
0.745127 0.320251 0.000000 
0.709258 0.318657 0.000000 
0.673389 0.317063 0.000000 
0.680063 0.256510 0.000000 
0.686736 0.195956 0.000000 
0.703614 0.159185 0.000000 
0.745127 0.320251 0.000000 
0.782184 0.352658 0.000000 
0.819241 0.385065 0.000000 
0.740636 0.402588 0.000000 
0.662032 0.420111 0.000000 
0.667710 0.368587 0.000000 
0.673389 0.317063 0.000000 
0.709258 0.318657 0.000000 
0.819241 0.385065 0.000000 
0.822982 0.505764 0.000000 
0.826724 0.626464 0.000000 
0.741961 0.545222 0.000000 
0.657197 0.463981 0.000000 
0.659614 0.442046 0.000000 
0.662032 0.420111 0.000000 
0.740636 0.402588 0.000000 
0.826724 0.626464 0.000000 
0.761406 0.631292 0.000000 
0.696089 0.636119 0.000000 
0.664905 0.580151 0.000000 
0.633722 0.524183 0.000000 
0.645460 0.494082 0.000000 
0.657197 0.463981 0.000000 
0.741961 0.545222 0.000000 
0.696089 0.636119 0.000000 
0.665827 0.683897 0.000000 
0.635565 0.731674 0.000000 
0.618106 0.670338 0.000000 
0.600647 0.609002 0.000000 
0.617185 0.566593 0.000000 
0.633722 0.524183 0.000000 
0.664905 0.580151 0.000000 
0.635565 0.731674 0.000000 
0.598778 0.782898 0.000000 
0.561991 0.834122 0.000000 
0.560021 0.776180 0.000000 
0.558051 0.718238 0.000000 
0.579349 0.663620 0.000000 
0.600647 0.609002 0.000000 
0.618106 0.670338 0.000000 
0.561991 0.834122 0.000000 
0.557589 0.917061 0.000000 
0.553186 1.000000 0.000000 
0.500682 1.000000 0.000000 
0.448179 1.000000 0.000000 
0.503115 0.859119 0.000000 
0.558051 0.718238 0.000000 
0.560021 0.776180 0.000000 
0.708332 0.000000 0.000000 
0.697534 0.097978 0.000000 
0.686736 0.195956 0.000000 
0.635244 0.141595 0.000000 
0.583753 0.087234 0.000000 
0.489919 0.043617 0.000000 
0.396085 0.000000 0.000000 
0.552208 0.000000 0.000000 
0.686736 0.195956 0.000000 
0.680063 0.256510 0.000000 
0.673389 0.317063 0.000000 
0.637020 0.285565 0.000000 
0.600652 0.254066 0.000000 
0.592202 0.170650 0.000000 
0.583753 0.087234 0.000000 
0.635244 0.141595 0.000000 
0.673389 0.317063 0.000000 
0.667710 0.368587 0.000000 
0.662032 0.420111 0.000000 
0.536002 0.449243 0.000000 
0.409972 0.478375 0.000000 
0.505312 0.366221 0.000000 
0.600652 0.254066 0.000000 
0.637020 0.285565 0.000000 
0.662032 0.420111 0.000000 
0.659614 0.442046 0.000000 
0.657197 0.463981 0.000000 
0.544131 0.493538 0.000000 
0.431065 0.523096 0.000000 
0.420519 0.500736 0.000000 
0.409972 0.478375 0.000000 
0.536002 0.449243 0.000000 
0.657197 0.463981 0.000000 
0.645460 0.494082 0.000000 
0.633722 0.524183 0.000000 
0.568614 0.553847 0.000000 
0.503506 0.583511 0.000000 
0.467286 0.553303 0.000000 
0.431065 0.523096 0.000000 
0.544131 0.493538 0.000000 
0.633722 0.524183 0.000000 
0.617185 0.566593 0.000000 
0.600647 0.609002 0.000000 
0.568078 0.634856 0.000000 
0.535508 0.660709 0.000000 
0.519507 0.622110 0.000000 
0.503506 0.583511 0.000000 
0.568614 0.553847 0.000000 
0.600647 0.609002 0.000000 
0.579349 0.663620 0.000000 
0.558051 0.718238 0.000000 
0.535672 0.733755 0.000000 
0.513293 0.749272 0.000000 
0.524401 0.704991 0.000000 
0.535508 0.660709 0.000000 
0.568078 0.634856 0.000000 
0.558051 0.718238 0.000000 
0.503115 0.859119 0.000000 
0.448179 1.000000 0.000000 
0.432978 1.000000 0.000000 
0.417777 1.000000 0.000000 
0.465535 0.874636 0.000000 
0.513293 0.749272 0.000000 
0.535672 0.733755 0.000000 
0.396085 0.000000 0.000000 
0.489919 0.043617 0.000000 
0.583753 0.087234 0.000000 
0.475158 0.079908 0.000000 
0.366564 0.072582 0.000000 
0.318123 0.036291 0.000000 
0.269682 0.000000 0.000000 
0.332884 0.000000 0.000000 
0.583753 0.087234 0.000000 
0.592202 0.170650 0.000000 
0.600652 0.254066 0.000000 
0.574531 0.231443 0.000000 
0.548411 0.208820 0.000000 
0.457487 0.140701 0.000000 
0.366564 0.072582 0.000000 
0.475158 0.079908 0.000000 
0.600652 0.254066 0.000000 
0.505312 0.366221 0.000000 
0.409972 0.478375 0.000000 
0.442022 0.391361 0.000000 
0.474073 0.304346 0.000000 
0.511242 0.256583 0.000000 
0.548411 0.208820 0.000000 
0.574531 0.231443 0.000000 
0.409972 0.478375 0.000000 
0.420519 0.500736 0.000000 
0.431065 0.523096 0.000000 
0.351212 0.543971 0.000000 
0.271358 0.564846 0.000000 
0.372715 0.434596 0.000000 
0.474073 0.304346 0.000000 
0.442022 0.391361 0.000000 
0.431065 0.523096 0.000000 
0.467286 0.553303 0.000000 
0.503506 0.583511 0.000000 
0.417970 0.629020 0.000000 
0.332434 0.674528 0.000000 
0.301896 0.619687 0.000000 
0.271358 0.564846 0.000000 
0.351212 0.543971 0.000000 
0.503506 0.583511 0.000000 
0.519507 0.622110 0.000000 
0.535508 0.660709 0.000000 
0.462426 0.718721 0.000000 
0.389345 0.776733 0.000000 
0.360889 0.725631 0.000000 
0.332434 0.674528 0.000000 
0.417970 0.629020 0.000000 
0.535508 0.660709 0.000000 
0.524401 0.704991 0.000000 
0.513293 0.749272 0.000000 
0.431644 0.813226 0.000000 
0.349994 0.877179 0.000000 
0.369669 0.826956 0.000000 
0.389345 0.776733 0.000000 
0.462426 0.718721 0.000000 
0.513293 0.749272 0.000000 
0.465535 0.874636 0.000000 
0.417777 1.000000 0.000000 
0.359827 1.000000 0.000000 
0.301877 1.000000 0.000000 
0.325936 0.938589 0.000000 
0.349994 0.877179 0.000000 
0.431644 0.813226 0.000000 
0.269682 0.000000 0.000000 
0.318123 0.036291 0.000000 
0.366564 0.072582 0.000000 
0.329608 0.101886 0.000000 
0.292653 0.131190 0.000000 
0.174227 0.065595 0.000000 
0.055801 0.000000 0.000000 
0.162742 0.000000 0.000000 
0.366564 0.072582 0.000000 
0.457487 0.140701 0.000000 
0.548411 0.208820 0.000000 
0.375319 0.255339 0.000000 
0.202228 0.301858 0.000000 
0.247441 0.216524 0.000000 
0.292653 0.131190 0.000000 
0.329608 0.101886 0.000000 
0.548411 0.208820 0.000000 
0.511242 0.256583 0.000000 
0.474073 0.304346 0.000000 
0.319424 0.372571 0.000000 
0.164775 0.440795 0.000000 
0.183501 0.371327 0.000000 
0.202228 0.301858 0.000000 
0.375319 0.255339 0.000000 
0.474073 0.304346 0.000000 
0.372715 0.434596 0.000000 
0.271358 0.564846 0.000000 
0.175496 0.589905 0.000000 
0.079635 0.614965 0.000000 
0.122205 0.527880 0.000000 
0.164775 0.440795 0.000000 
0.319424 0.372571 0.000000 
0.271358 0.564846 0.000000 
0.301896 0.619687 0.000000 
0.332434 0.674528 0.000000 
0.279891 0.697925 0.000000 
0.227348 0.721323 0.000000 
0.153491 0.668144 0.000000 
0.079635 0.614965 0.000000 
0.175496 0.589905 0.000000 
0.332434 0.674528 0.000000 
0.360889 0.725631 0.000000 
0.389345 0.776733 0.000000 
0.331836 0.772662 0.000000 
0.274326 0.768590 0.000000 
0.250837 0.744957 0.000000 
0.227348 0.721323 0.000000 
0.279891 0.697925 0.000000 
0.389345 0.776733 0.000000 
0.369669 0.826956 0.000000 
0.349994 0.877179 0.000000 
0.309245 0.861069 0.000000 
0.268496 0.844959 0.000000 
0.271411 0.806774 0.000000 
0.274326 0.768590 0.000000 
0.331836 0.772662 0.000000 
0.349994 0.877179 0.000000 
0.325936 0.938589 0.000000 
0.301877 1.000000 0.000000 
0.265267 1.000000 0.000000 
0.228657 1.000000 0.000000 
0.248577 0.922480 0.000000 
0.268496 0.844959 0.000000 
0.309245 0.861069 0.000000 
0.055801 0.000000 0.000000 
0.174227 0.065595 0.000000 
0.292653 0.131190 0.000000 
0.146327 0.202942 0.000000 
0.000000 0.274694 0.000000 
0.000000 0.137347 0.000000 
0.000000 0.000000 0.000000 
0.027901 0.000000 0.000000 
0.292653 0.131190 0.000000 
0.247441 0.216524 0.000000 
0.202228 0.301858 0.000000 
0.101114 0.329033 0.000000 
0.000000 0.356208 0.000000 
0.000000 0.315451 0.000000 
0.000000 0.274694 0.000000 
0.146327 0.202942 0.000000 
0.202228 0.301858 0.000000 
0.183501 0.371327 0.000000 
0.164775 0.440795 0.000000 
0.082388 0.446195 0.000000 
0.000000 0.451596 0.000000 
0.000000 0.403902 0.000000 
0.000000 0.356208 0.000000 
0.101114 0.329033 0.000000 
0.164775 0.440795 0.000000 
0.122205 0.527880 0.000000 
0.079635 0.614965 0.000000 
0.039817 0.625374 0.000000 
0.000000 0.635783 0.000000 
0.000000 0.543689 0.000000 
0.000000 0.451596 0.000000 
0.082388 0.446195 0.000000 
0.079635 0.614965 0.000000 
0.153491 0.668144 0.000000 
0.227348 0.721323 0.000000 
0.113674 0.719144 0.000000 
0.000000 0.716965 0.000000 
0.000000 0.676374 0.000000 
0.000000 0.635783 0.000000 
0.039817 0.625374 0.000000 
0.227348 0.721323 0.000000 
0.250837 0.744957 0.000000 
0.274326 0.768590 0.000000 
0.137163 0.758880 0.000000 
0.000000 0.749170 0.000000 
0.000000 0.733067 0.000000 
0.000000 0.716965 0.000000 
0.113674 0.719144 0.000000 
0.274326 0.768590 0.000000 
0.271411 0.806774 0.000000 
0.268496 0.844959 0.000000 
0.134248 0.864596 0.000000 
0.000000 0.884233 0.000000 
0.000000 0.816701 0.000000 
0.000000 0.749170 0.000000 
0.137163 0.758880 0.000000 
0.268496 0.844959 0.000000 
0.248577 0.922480 0.000000 
0.228657 1.000000 0.000000 
0.114329 1.000000 0.000000 
0.000000 1.000000 0.000000 
0.000000 0.942117 0.000000 
0.000000 0.884233 0.000000 
0.134248 0.864596 0.000000 
CELLS 64 576 
 8 0 1 2 3 4 5 6 7  
 8 8 9 10 11 12 13 14 15  
 8 16 17 18 19 20 21 22 23  
 8 24 25 26 27 28 29 30 31  
 8 32 33 34 35 36 37 38 39  
 8 40 41 42 43 44 45 46 47  
 8 48 49 50 51 52 53 54 55  
 8 56 57 58 59 60 61 62 63  
 8 64 65 66 67 68 69 70 71  
 8 72 73 74 75 76 77 78 79  
 8 80 81 82 83 84 85 86 87  
 8 88 89 90 91 92 93 94 95  
 8 96 97 98 99 100 101 102 103  
 8 104 105 106 107 108 109 110 111  
 8 112 113 114 115 116 117 118 119  
 8 120 121 122 123 124 125 126 127  
 8 128 129 130 131 132 133 134 135  
 8 136 137 138 139 140 141 142 143  
 8 144 145 146 147 148 149 150 151  
 8 152 153 154 155 156 157 158 159  
 8 160 161 162 163 164 165 166 167  
 8 168 169 170 171 172 173 174 175  
 8 176 177 178 179 180 181 182 183  
 8 184 185 186 187 188 189 190 191  
 8 192 193 194 195 196 197 198 199  
 8 200 201 202 203 204 205 206 207  
 8 208 209 210 211 212 213 214 215  
 8 216 217 218 219 220 221 222 223  
 8 224 225 226 227 228 229 230 231  
 8 232 233 234 235 236 237 238 239  
 8 240 241 242 243 244 245 246 247  
 8 248 249 250 251 252 253 254 255  
 8 256 257 258 259 260 261 262 263  
 8 264 265 266 267 268 269 270 271  
 8 272 273 274 275 276 277 278 279  
 8 280 281 282 283 284 285 286 287  
 8 288 289 290 291 292 293 294 295  
 8 296 297 298 299 300 301 302 303  
 8 304 305 306 307 308 309 310 311  
 8 312 313 314 315 316 317 318 319  
 8 320 321 322 323 324 325 326 327  
 8 328 329 330 331 332 333 334 335  
 8 336 337 338 339 340 341 342 343  
 8 344 345 346 347 348 349 350 351  
 8 352 353 354 355 356 357 358 359  
 8 360 361 362 363 364 365 366 367  
 8 368 369 370 371 372 373 374 375  
 8 376 377 378 379 380 381 382 383  
 8 384 385 386 387 388 389 390 391  
 8 392 393 394 395 396 397 398 399  
 8 400 401 402 403 404 405 406 407  
 8 408 409 410 411 412 413 414 415  
 8 416 417 418 419 420 421 422 423  
 8 424 425 426 427 428 429 430 431  
 8 432 433 434 435 436 437 438 439  
 8 440 441 442 443 444 445 446 447  
 8 448 449 450 451 452 453 454 455  
 8 456 457 458 459 460 461 462 463  
 8 464 465 466 467 468 469 470 471  
 8 472 473 474 475 476 477 478 479  
 8 480 481 482 483 484 485 486 487  
 8 488 489 490 491 492 493 494 495  
 8 496 497 498 499 500 501 502 503  
 8 504 505 506 507 508 509 510 511  
 
CELL_TYPES 64
7
7
7
7
7
7
7
7
7
7
7
7
7
7
7
7
7
7
7
7
7
7
7
7
7
7
7
7
7
7
7
7
7
7
7
7
7
7
7
7
7
7
7
7
7
7
7
7
7
7
7
7
7
7
7
7
7
7
7
7
7
7
7
7
CELL_DATA 64
FIELD FieldData 1
material 1 64 int
1
1
1
1
1
1
1
1
1
1
1
1
1
1
1
1
1
1
1
1
1
1
1
1
1
1
1
1
1
1
1
1
1
1
1
1
1
1
1
1
1
1
1
1
1
1
1
1
1
1
1
1
1
1
1
1
1
1
1
1
1
1
1
1
POINT_DATA 512 SCALARS flux_g1 double 
LOOKUP_TABLE   default 
1.88527508e+01
1.98780830e+01
2.10335087e+01
2.03201946e+01
1.96326826e+01
1.87203444e+01
1.79393036e+01
1.83832012e+01
2.10319453e+01
2.45932802e+01
2.91787475e+01
2.66966423e+01
2.44482459e+01
2.17842109e+01
1.96288565e+01
2.03105139e+01
2.91774130e+01
2.98876205e+01
3.06516296e+01
2.93940216e+01
2.82207480e+01
2.62154852e+01
2.44512291e+01
2.66949339e+01
3.06474968e+01
3.16781967e+01
3.27594153e+01
3.14229000e+01
3.01533441e+01
2.91566750e+01
2.82195257e+01
2.93981738e+01
3.27590450e+01
3.29374371e+01
3.31180534e+01
3.14793564e+01
2.99438372e+01
3.00455075e+01
3.01528747e+01
3.14233882e+01
3.31183393e+01
3.35506461e+01
3.39926430e+01
3.26532871e+01
3.14122997e+01
3.06558403e+01
2.99439166e+01
3.14788195e+01
3.39924420e+01
3.45927903e+01
3.52044899e+01
3.26660139e+01
3.04645501e+01
3.08929226e+01
3.14135963e+01
3.26513852e+01
3.52047370e+01
3.64230428e+01
3.77016158e+01
3.53347763e+01
3.31458074e+01
3.17703257e+01
3.04652384e+01
3.26645810e+01
1.79393801e+01
1.87201202e+01
1.96333599e+01
1.84412234e+01
1.73423665e+01
1.60713248e+01
1.49573685e+01
1.63792419e+01
1.96289873e+01
2.17850635e+01
2.44482920e+01
2.28769473e+01
2.14550075e+01
1.92222205e+01
1.73423164e+01
1.84409833e+01
2.44505930e+01
2.62183029e+01
2.82199439e+01
2.53912506e+01
2.29275136e+01
2.21728954e+01
2.14525853e+01
2.28791962e+01
2.82201927e+01
2.91555642e+01
3.01558544e+01
2.86575254e+01
2.72532727e+01
2.49115320e+01
2.29284167e+01
2.53888211e+01
3.01538327e+01
3.00467384e+01
2.99432861e+01
2.85695321e+01
2.73189162e+01
2.72325899e+01
2.72512775e+01
2.86627343e+01
2.99431211e+01
3.06550908e+01
3.14133958e+01
2.93078315e+01
2.74461824e+01
2.73664733e+01
2.73194152e+01
2.85700101e+01
3.14135072e+01
3.08874711e+01
3.04639611e+01
2.99195848e+01
2.94004614e+01
2.83936959e+01
2.74464083e+01
2.93075617e+01
3.04655084e+01
3.17773792e+01
3.31456472e+01
3.14918338e+01
2.99429701e+01
2.96679179e+01
2.94001734e+01
2.99184055e+01
1.49585884e+01
1.60753860e+01
1.73433655e+01
1.63905722e+01
1.55141197e+01
1.48367641e+01
1.42445684e+01
1.45940922e+01
1.73434993e+01
1.92210903e+01
2.14551603e+01
1.99775329e+01
1.86388315e+01
1.69348364e+01
1.55161694e+01
1.63906217e+01
2.14529330e+01
2.21720528e+01
2.29286389e+01
2.19439085e+01
2.10132169e+01
1.97792386e+01
1.86376090e+01
1.99758211e+01
2.29282052e+01
2.49101956e+01
2.72541644e+01
2.63327760e+01
2.54484716e+01
2.30432626e+01
2.10144695e+01
2.19437200e+01
2.72516894e+01
2.72323707e+01
2.73192354e+01
2.50611693e+01
2.30414336e+01
2.41952624e+01
2.54464026e+01
2.63312422e+01
2.73193223e+01
2.73668050e+01
2.74478264e+01
2.54915507e+01
2.37105241e+01
2.33534355e+01
2.30417482e+01
2.50606164e+01
2.74474778e+01
2.83953490e+01
2.93992784e+01
2.67461538e+01
2.43677798e+01
2.40110471e+01
2.37100038e+01
2.54926070e+01
2.93987976e+01
2.96665512e+01
2.99428508e+01
2.88048246e+01
2.77291966e+01
2.59682498e+01
2.43677806e+01
2.67470147e+01
1.42455817e+01
1.48357527e+01
1.55151838e+01
1.57035100e+01
1.59101172e+01
1.48054067e+01
1.39006826e+01
1.40704688e+01
1.55170175e+01
1.69342739e+01
1.86378495e+01
1.79740161e+01
1.73530956e+01
1.65743892e+01
1.59048423e+01
1.57038613e+01
1.86376493e+01
1.97811630e+01
2.10136206e+01
1.97941994e+01
1.87148556e+01
1.80074416e+01
1.73521956e+01
1.79740460e+01
2.10141911e+01
2.30438426e+01
2.54479219e+01
2.21361751e+01
1.93328137e+01
1.90190498e+01
1.87138825e+01
1.97944202e+01
2.54467453e+01
2.41945926e+01
2.30404170e+01
2.14027606e+01
1.99135228e+01
1.96158792e+01
1.93324388e+01
2.21348898e+01
2.30409694e+01
2.33545418e+01
2.37097514e+01
2.21907351e+01
2.07945659e+01
2.03347690e+01
1.99134460e+01
2.14025258e+01
2.37098500e+01
2.40097236e+01
2.43679615e+01
2.31533371e+01
2.20308290e+01
2.13839171e+01
2.07951891e+01
2.21903123e+01
2.43678895e+01
2.59695477e+01
2.77290961e+01
2.67095656e+01
2.57503758e+01
2.36997857e+01
2.20298829e+01
2.31536782e+01
1.38983151e+01
1.48110123e+01
1.59088523e+01
1.43446222e+01
1.30361960e+01
1.12353553e+01
9.76844185e+00
1.15799174e+01
1.59023510e+01
1.65855481e+01
1.73484872e+01
1.62887893e+01
1.53030818e+01
1.40624442e+01
1.30352006e+01
1.43403681e+01
1.73529103e+01
1.80047728e+01
1.87140182e+01
1.69875783e+01
1.56072174e+01
1.53150805e+01
1.53038730e+01
1.62849032e+01
1.87129919e+01
1.90161849e+01
1.93300400e+01
1.78321879e+01
1.65935067e+01
1.60810665e+01
1.56066289e+01
1.69866300e+01
1.93312423e+01
1.96141992e+01
1.99136877e+01
1.92636390e+01
1.87047741e+01
1.76058843e+01
1.65953523e+01
1.78284250e+01
1.99136693e+01
2.03350617e+01
2.07946909e+01
2.06767993e+01
2.05799889e+01
1.96137790e+01
1.87046286e+01
1.92632404e+01
2.07951264e+01
2.13847829e+01
2.20306346e+01
2.19223564e+01
2.18248266e+01
2.11834429e+01
2.05802504e+01
2.06762214e+01
2.20297156e+01
2.37003191e+01
2.57505986e+01
2.54736027e+01
2.52028371e+01
2.33624513e+01
2.18242473e+01
2.19222164e+01
9.76889307e+00
1.12446065e+01
1.30417967e+01
1.14160533e+01
1.01089094e+01
9.19519124e+00
8.44787036e+00
9.05180450e+00
1.30411339e+01
1.40561764e+01
1.53028587e+01
1.45946033e+01
1.39373863e+01
1.17928000e+01
1.01093536e+01
1.14182671e+01
1.53044276e+01
1.53202875e+01
1.56077506e+01
1.47846622e+01
1.40838923e+01
1.39887501e+01
1.39388231e+01
1.45965736e+01
1.56029642e+01
1.60785302e+01
1.66043734e+01
1.57358799e+01
1.49799986e+01
1.43429933e+01
1.40842978e+01
1.47780657e+01
1.66021411e+01
1.76053167e+01
1.87051568e+01
1.80775793e+01
1.75850751e+01
1.62172703e+01
1.49783406e+01
1.57316707e+01
1.87044609e+01
1.96127641e+01
2.05807783e+01
2.03655905e+01
2.02618383e+01
1.88632257e+01
1.75849489e+01
1.80780602e+01
2.05807746e+01
2.11830316e+01
2.18248361e+01
2.16056124e+01
2.15359438e+01
2.08728155e+01
2.02616469e+01
2.03651930e+01
2.18244903e+01
2.33619576e+01
2.52025771e+01
2.41747969e+01
2.32223634e+01
2.23433169e+01
2.15358425e+01
2.16062123e+01
8.44480297e+00
9.19333385e+00
1.01095207e+01
9.96218939e+00
9.84968174e+00
7.93856392e+00
6.66908748e+00
7.43608551e+00
1.01090793e+01
1.17933064e+01
1.39391527e+01
1.20134329e+01
1.06732738e+01
1.01957089e+01
9.85100538e+00
9.96071395e+00
1.39384792e+01
1.39910854e+01
1.40877233e+01
1.27907603e+01
1.19434883e+01
1.12565754e+01
1.06728619e+01
1.20129835e+01
1.40879039e+01
1.43449153e+01
1.49821599e+01
1.40879680e+01
1.33821299e+01
1.25901319e+01
1.19428517e+01
1.27914035e+01
1.49786563e+01
1.62169949e+01
1.75876350e+01
1.72097515e+01
1.68825787e+01
1.49740982e+01
1.33836330e+01
1.40854412e+01
1.75862495e+01
1.88631019e+01
2.02617286e+01
1.92657045e+01
1.83578432e+01
1.75992443e+01
1.68821531e+01
1.72099310e+01
2.02618185e+01
2.08733257e+01
2.15360125e+01
2.05634279e+01
1.96537164e+01
1.89886996e+01
1.83583691e+01
1.92657232e+01
2.15360444e+01
2.23430185e+01
2.32224410e+01
2.26246605e+01
2.20594995e+01
2.07968206e+01
1.96540665e+01
2.05637208e+01
6.67064737e+00
7.93974709e+00
9.85011147e+00
8.97493945e+00
8.49348358e+00
7.20674336e+00
6.29437375e+00
6.45837923e+00
9.84939379e+00
1.01955488e+01
1.06740474e+01
9.89533877e+00
9.32319313e+00
8.88509494e+00
8.49412604e+00
8.97555015e+00
1.06733593e+01
1.12577177e+01
1.19446633e+01
1.11005812e+01
1.04091508e+01
9.83842112e+00
9.32205852e+00
9.89640192e+00
1.19444087e+01
1.25898297e+01
1.33836182e+01
1.30862810e+01
1.28293009e+01
1.15304728e+01
1.04092398e+01
1.10991680e+01
1.33837783e+01
1.49732052e+01
1.68832435e+01
1.52851603e+01
1.40256744e+01
1.34073707e+01
1.28289749e+01
1.30904287e+01
1.68834202e+01
1.76012724e+01
1.83586720e+01
1.61900529e+01
1.45238730e+01
1.42712186e+01
1.40257839e+01
1.52854181e+01
1.83593281e+01
1.89878142e+01
1.96542858e+01
1.80107615e+01
1.67606695e+01
1.55907038e+01
1.45238632e+01
1.61884823e+01
1.96545756e+01
2.07911690e+01
2.20595932e+01
2.03229108e+01
1.88553357e+01
1.77651490e+01
1.67616057e+01
1.80102134e+01
 
