# vtk DataFile Version 3.0 
Date: 3/21/2016   Time: 14:2
ASCII 
DATASET UNSTRUCTURED_GRID 
 
POINTS 3200 float 
0.000000 0.000000 0.000000 
0.025000 0.000000 0.000000 
0.050000 0.000000 0.000000 
0.050000 0.010000 0.000000 
0.050000 0.020000 0.000000 
0.025000 0.020000 0.000000 
0.000000 0.020000 0.000000 
0.000000 0.010000 0.000000 
0.000000 0.020000 0.000000 
0.025000 0.020000 0.000000 
0.050000 0.020000 0.000000 
0.050000 0.030000 0.000000 
0.050000 0.040000 0.000000 
0.025000 0.040000 0.000000 
0.000000 0.040000 0.000000 
0.000000 0.030000 0.000000 
0.000000 0.040000 0.000000 
0.025000 0.040000 0.000000 
0.050000 0.040000 0.000000 
0.050000 0.050000 0.000000 
0.050000 0.060000 0.000000 
0.025000 0.060000 0.000000 
0.000000 0.060000 0.000000 
0.000000 0.050000 0.000000 
0.000000 0.060000 0.000000 
0.025000 0.060000 0.000000 
0.050000 0.060000 0.000000 
0.050000 0.070000 0.000000 
0.050000 0.080000 0.000000 
0.025000 0.080000 0.000000 
0.000000 0.080000 0.000000 
0.000000 0.070000 0.000000 
0.000000 0.080000 0.000000 
0.025000 0.080000 0.000000 
0.050000 0.080000 0.000000 
0.050000 0.090000 0.000000 
0.050000 0.100000 0.000000 
0.025000 0.100000 0.000000 
0.000000 0.100000 0.000000 
0.000000 0.090000 0.000000 
0.000000 0.100000 0.000000 
0.025000 0.100000 0.000000 
0.050000 0.100000 0.000000 
0.050000 0.110000 0.000000 
0.050000 0.120000 0.000000 
0.025000 0.120000 0.000000 
0.000000 0.120000 0.000000 
0.000000 0.110000 0.000000 
0.000000 0.120000 0.000000 
0.025000 0.120000 0.000000 
0.050000 0.120000 0.000000 
0.050000 0.130000 0.000000 
0.050000 0.140000 0.000000 
0.025000 0.140000 0.000000 
0.000000 0.140000 0.000000 
0.000000 0.130000 0.000000 
0.000000 0.140000 0.000000 
0.025000 0.140000 0.000000 
0.050000 0.140000 0.000000 
0.050000 0.150000 0.000000 
0.050000 0.160000 0.000000 
0.025000 0.160000 0.000000 
0.000000 0.160000 0.000000 
0.000000 0.150000 0.000000 
0.000000 0.160000 0.000000 
0.025000 0.160000 0.000000 
0.050000 0.160000 0.000000 
0.050000 0.170000 0.000000 
0.050000 0.180000 0.000000 
0.025000 0.180000 0.000000 
0.000000 0.180000 0.000000 
0.000000 0.170000 0.000000 
0.000000 0.180000 0.000000 
0.025000 0.180000 0.000000 
0.050000 0.180000 0.000000 
0.050000 0.190000 0.000000 
0.050000 0.200000 0.000000 
0.025000 0.200000 0.000000 
0.000000 0.200000 0.000000 
0.000000 0.190000 0.000000 
0.000000 0.200000 0.000000 
0.025000 0.200000 0.000000 
0.050000 0.200000 0.000000 
0.050000 0.240000 0.000000 
0.050000 0.280000 0.000000 
0.025000 0.280000 0.000000 
0.000000 0.280000 0.000000 
0.000000 0.240000 0.000000 
0.000000 0.280000 0.000000 
0.025000 0.280000 0.000000 
0.050000 0.280000 0.000000 
0.050000 0.320000 0.000000 
0.050000 0.360000 0.000000 
0.025000 0.360000 0.000000 
0.000000 0.360000 0.000000 
0.000000 0.320000 0.000000 
0.000000 0.360000 0.000000 
0.025000 0.360000 0.000000 
0.050000 0.360000 0.000000 
0.050000 0.400000 0.000000 
0.050000 0.440000 0.000000 
0.025000 0.440000 0.000000 
0.000000 0.440000 0.000000 
0.000000 0.400000 0.000000 
0.000000 0.440000 0.000000 
0.025000 0.440000 0.000000 
0.050000 0.440000 0.000000 
0.050000 0.480000 0.000000 
0.050000 0.520000 0.000000 
0.025000 0.520000 0.000000 
0.000000 0.520000 0.000000 
0.000000 0.480000 0.000000 
0.000000 0.520000 0.000000 
0.025000 0.520000 0.000000 
0.050000 0.520000 0.000000 
0.050000 0.560000 0.000000 
0.050000 0.600000 0.000000 
0.025000 0.600000 0.000000 
0.000000 0.600000 0.000000 
0.000000 0.560000 0.000000 
0.000000 0.600000 0.000000 
0.025000 0.600000 0.000000 
0.050000 0.600000 0.000000 
0.050000 0.640000 0.000000 
0.050000 0.680000 0.000000 
0.025000 0.680000 0.000000 
0.000000 0.680000 0.000000 
0.000000 0.640000 0.000000 
0.000000 0.680000 0.000000 
0.025000 0.680000 0.000000 
0.050000 0.680000 0.000000 
0.050000 0.720000 0.000000 
0.050000 0.760000 0.000000 
0.025000 0.760000 0.000000 
0.000000 0.760000 0.000000 
0.000000 0.720000 0.000000 
0.000000 0.760000 0.000000 
0.025000 0.760000 0.000000 
0.050000 0.760000 0.000000 
0.050000 0.800000 0.000000 
0.050000 0.840000 0.000000 
0.025000 0.840000 0.000000 
0.000000 0.840000 0.000000 
0.000000 0.800000 0.000000 
0.000000 0.840000 0.000000 
0.025000 0.840000 0.000000 
0.050000 0.840000 0.000000 
0.050000 0.880000 0.000000 
0.050000 0.920000 0.000000 
0.025000 0.920000 0.000000 
0.000000 0.920000 0.000000 
0.000000 0.880000 0.000000 
0.000000 0.920000 0.000000 
0.025000 0.920000 0.000000 
0.050000 0.920000 0.000000 
0.050000 0.960000 0.000000 
0.050000 1.000000 0.000000 
0.025000 1.000000 0.000000 
0.000000 1.000000 0.000000 
0.000000 0.960000 0.000000 
0.050000 0.000000 0.000000 
0.075000 0.000000 0.000000 
0.100000 0.000000 0.000000 
0.100000 0.010000 0.000000 
0.100000 0.020000 0.000000 
0.075000 0.020000 0.000000 
0.050000 0.020000 0.000000 
0.050000 0.010000 0.000000 
0.050000 0.020000 0.000000 
0.075000 0.020000 0.000000 
0.100000 0.020000 0.000000 
0.100000 0.030000 0.000000 
0.100000 0.040000 0.000000 
0.075000 0.040000 0.000000 
0.050000 0.040000 0.000000 
0.050000 0.030000 0.000000 
0.050000 0.040000 0.000000 
0.075000 0.040000 0.000000 
0.100000 0.040000 0.000000 
0.100000 0.050000 0.000000 
0.100000 0.060000 0.000000 
0.075000 0.060000 0.000000 
0.050000 0.060000 0.000000 
0.050000 0.050000 0.000000 
0.050000 0.060000 0.000000 
0.075000 0.060000 0.000000 
0.100000 0.060000 0.000000 
0.100000 0.070000 0.000000 
0.100000 0.080000 0.000000 
0.075000 0.080000 0.000000 
0.050000 0.080000 0.000000 
0.050000 0.070000 0.000000 
0.050000 0.080000 0.000000 
0.075000 0.080000 0.000000 
0.100000 0.080000 0.000000 
0.100000 0.090000 0.000000 
0.100000 0.100000 0.000000 
0.075000 0.100000 0.000000 
0.050000 0.100000 0.000000 
0.050000 0.090000 0.000000 
0.050000 0.100000 0.000000 
0.075000 0.100000 0.000000 
0.100000 0.100000 0.000000 
0.100000 0.110000 0.000000 
0.100000 0.120000 0.000000 
0.075000 0.120000 0.000000 
0.050000 0.120000 0.000000 
0.050000 0.110000 0.000000 
0.050000 0.120000 0.000000 
0.075000 0.120000 0.000000 
0.100000 0.120000 0.000000 
0.100000 0.130000 0.000000 
0.100000 0.140000 0.000000 
0.075000 0.140000 0.000000 
0.050000 0.140000 0.000000 
0.050000 0.130000 0.000000 
0.050000 0.140000 0.000000 
0.075000 0.140000 0.000000 
0.100000 0.140000 0.000000 
0.100000 0.150000 0.000000 
0.100000 0.160000 0.000000 
0.075000 0.160000 0.000000 
0.050000 0.160000 0.000000 
0.050000 0.150000 0.000000 
0.050000 0.160000 0.000000 
0.075000 0.160000 0.000000 
0.100000 0.160000 0.000000 
0.100000 0.170000 0.000000 
0.100000 0.180000 0.000000 
0.075000 0.180000 0.000000 
0.050000 0.180000 0.000000 
0.050000 0.170000 0.000000 
0.050000 0.180000 0.000000 
0.075000 0.180000 0.000000 
0.100000 0.180000 0.000000 
0.100000 0.190000 0.000000 
0.100000 0.200000 0.000000 
0.075000 0.200000 0.000000 
0.050000 0.200000 0.000000 
0.050000 0.190000 0.000000 
0.050000 0.200000 0.000000 
0.075000 0.200000 0.000000 
0.100000 0.200000 0.000000 
0.100000 0.240000 0.000000 
0.100000 0.280000 0.000000 
0.075000 0.280000 0.000000 
0.050000 0.280000 0.000000 
0.050000 0.240000 0.000000 
0.050000 0.280000 0.000000 
0.075000 0.280000 0.000000 
0.100000 0.280000 0.000000 
0.100000 0.320000 0.000000 
0.100000 0.360000 0.000000 
0.075000 0.360000 0.000000 
0.050000 0.360000 0.000000 
0.050000 0.320000 0.000000 
0.050000 0.360000 0.000000 
0.075000 0.360000 0.000000 
0.100000 0.360000 0.000000 
0.100000 0.400000 0.000000 
0.100000 0.440000 0.000000 
0.075000 0.440000 0.000000 
0.050000 0.440000 0.000000 
0.050000 0.400000 0.000000 
0.050000 0.440000 0.000000 
0.075000 0.440000 0.000000 
0.100000 0.440000 0.000000 
0.100000 0.480000 0.000000 
0.100000 0.520000 0.000000 
0.075000 0.520000 0.000000 
0.050000 0.520000 0.000000 
0.050000 0.480000 0.000000 
0.050000 0.520000 0.000000 
0.075000 0.520000 0.000000 
0.100000 0.520000 0.000000 
0.100000 0.560000 0.000000 
0.100000 0.600000 0.000000 
0.075000 0.600000 0.000000 
0.050000 0.600000 0.000000 
0.050000 0.560000 0.000000 
0.050000 0.600000 0.000000 
0.075000 0.600000 0.000000 
0.100000 0.600000 0.000000 
0.100000 0.640000 0.000000 
0.100000 0.680000 0.000000 
0.075000 0.680000 0.000000 
0.050000 0.680000 0.000000 
0.050000 0.640000 0.000000 
0.050000 0.680000 0.000000 
0.075000 0.680000 0.000000 
0.100000 0.680000 0.000000 
0.100000 0.720000 0.000000 
0.100000 0.760000 0.000000 
0.075000 0.760000 0.000000 
0.050000 0.760000 0.000000 
0.050000 0.720000 0.000000 
0.050000 0.760000 0.000000 
0.075000 0.760000 0.000000 
0.100000 0.760000 0.000000 
0.100000 0.800000 0.000000 
0.100000 0.840000 0.000000 
0.075000 0.840000 0.000000 
0.050000 0.840000 0.000000 
0.050000 0.800000 0.000000 
0.050000 0.840000 0.000000 
0.075000 0.840000 0.000000 
0.100000 0.840000 0.000000 
0.100000 0.880000 0.000000 
0.100000 0.920000 0.000000 
0.075000 0.920000 0.000000 
0.050000 0.920000 0.000000 
0.050000 0.880000 0.000000 
0.050000 0.920000 0.000000 
0.075000 0.920000 0.000000 
0.100000 0.920000 0.000000 
0.100000 0.960000 0.000000 
0.100000 1.000000 0.000000 
0.075000 1.000000 0.000000 
0.050000 1.000000 0.000000 
0.050000 0.960000 0.000000 
0.100000 0.000000 0.000000 
0.125000 0.000000 0.000000 
0.150000 0.000000 0.000000 
0.150000 0.010000 0.000000 
0.150000 0.020000 0.000000 
0.125000 0.020000 0.000000 
0.100000 0.020000 0.000000 
0.100000 0.010000 0.000000 
0.100000 0.020000 0.000000 
0.125000 0.020000 0.000000 
0.150000 0.020000 0.000000 
0.150000 0.030000 0.000000 
0.150000 0.040000 0.000000 
0.125000 0.040000 0.000000 
0.100000 0.040000 0.000000 
0.100000 0.030000 0.000000 
0.100000 0.040000 0.000000 
0.125000 0.040000 0.000000 
0.150000 0.040000 0.000000 
0.150000 0.050000 0.000000 
0.150000 0.060000 0.000000 
0.125000 0.060000 0.000000 
0.100000 0.060000 0.000000 
0.100000 0.050000 0.000000 
0.100000 0.060000 0.000000 
0.125000 0.060000 0.000000 
0.150000 0.060000 0.000000 
0.150000 0.070000 0.000000 
0.150000 0.080000 0.000000 
0.125000 0.080000 0.000000 
0.100000 0.080000 0.000000 
0.100000 0.070000 0.000000 
0.100000 0.080000 0.000000 
[...]
CELL_DATA 400
FIELD FieldData 1
material 1 400 int
1
1
1
1
1
1
1
1
1
1
1
1
1
1
1
1
1
1
1
1
1
1
1
1
1
1
1
1
1
1
1
1
1
1
1
1
1
1
1
1
1
1
1
1
1
1
1
1
1
1
1
1
1
1
1
1
1
1
1
1
1
1
1
1
1
1
1
1
1
1
1
1
1
1
1
1
1
1
1
1
1
1
1
1
1
1
1
1
1
1
1
1
1
1
1
1
1
1
1
1
1
1
1
1
1
1
1
1
1
1
1
1
1
1
1
1
1
1
1
1
1
1
1
1
1
1
1
1
1
1
1
1
1
1
1
1
1
1
1
1
1
1
1
1
1
1
1
1
1
1
1
1
1
1
1
1
1
1
1
1
1
1
1
1
1
1
1
1
1
1
1
1
1
1
1
1
1
1
1
1
1
1
1
1
1
1
1
1
1
1
1
1
1
1
1
1
1
1
1
1
1
1
1
1
1
1
1
1
1
1
1
1
1
1
1
1
1
1
1
1
1
1
1
1
1
1
1
1
1
1
1
1
1
1
1
1
1
1
1
1
1
1
1
1
1
1
1
1
1
1
1
1
1
1
1
1
1
1
1
1
1
1
1
1
1
1
1
1
1
1
1
1
1
1
1
1
1
1
1
1
1
1
1
1
1
1
1
1
1
1
1
1
1
1
1
1
1
1
1
1
1
1
1
1
1
1
1
1
1
1
1
1
1
1
1
1
1
1
1
1
1
1
1
1
1
1
1
1
1
1
1
1
1
1
1
1
1
1
1
1
1
1
1
1
1
1
1
1
1
1
1
1
1
1
1
1
1
1
1
1
1
1
1
1
1
1
1
1
1
1
1
1
1
1
1
1
1
1
1
1
1
1
1
1
1
1
1
1
1
1
1
1
1
1
1
1
1
1
1
1
POINT_DATA 3200 SCALARS flux_g1 double 
LOOKUP_TABLE   default 
6.28348130e+00
6.44220972e+00
6.61341745e+00
6.67951575e+00
6.74825555e+00
6.57236949e+00
6.41184299e+00
6.34635796e+00
6.41184207e+00
6.57238705e+00
6.74825229e+00
6.81667662e+00
6.88773852e+00
6.70854634e+00
6.54503859e+00
6.47725247e+00
6.54505425e+00
6.70852850e+00
6.88775480e+00
6.95869807e+00
7.03228308e+00
6.84976895e+00
6.68328740e+00
6.61299723e+00
6.68329093e+00
6.84976299e+00
7.03228793e+00
7.10576378e+00
7.18185076e+00
6.99614000e+00
6.82651559e+00
6.75373059e+00
6.82651319e+00
6.99614096e+00
7.18185115e+00
7.25783170e+00
7.33642198e+00
7.14759358e+00
6.97476807e+00
6.89947003e+00
6.97476476e+00
7.14759676e+00
7.33641806e+00
7.41490566e+00
7.49600945e+00
7.30410367e+00
7.12805603e+00
7.05023923e+00
7.12805288e+00
7.30410535e+00
7.49600393e+00
7.57700890e+00
7.66063738e+00
7.46565127e+00
7.28638536e+00
7.20604932e+00
7.28638464e+00
7.46565034e+00
7.66063475e+00
7.74416953e+00
7.83035494e+00
7.63225407e+00
7.44974419e+00
7.36689404e+00
7.44973961e+00
7.63226309e+00
7.83034623e+00
7.91641163e+00
8.00511528e+00
7.80399360e+00
7.61816201e+00
7.53275491e+00
7.61816734e+00
7.80397831e+00
8.00511353e+00
8.09378239e+00
8.18507829e+00
7.98086313e+00
7.79189553e+00
7.70371059e+00
7.79194086e+00
7.98012502e+00
8.18501211e+00
8.54964962e+00
8.95456673e+00
8.73734135e+00
8.53606976e+00
8.14762181e+00
8.53608901e+00
8.73731981e+00
8.95457242e+00
9.35908889e+00
9.80422431e+00
9.57436783e+00
9.36042382e+00
8.93158813e+00
9.36042290e+00
9.57437405e+00
9.80422792e+00
1.02488969e+01
1.07342002e+01
1.04916700e+01
1.02651804e+01
9.79610698e+00
1.02651834e+01
1.04916647e+01
1.07342047e+01
1.12190106e+01
1.17445058e+01
1.14893859e+01
1.12503590e+01
1.07410798e+01
1.12503601e+01
1.14893869e+01
1.17445061e+01
1.22695194e+01
1.28352431e+01
1.25675652e+01
1.23159762e+01
1.17664706e+01
1.23159765e+01
1.25675655e+01
1.28352434e+01
1.34004889e+01
1.40064460e+01
1.37262032e+01
1.34620470e+01
1.28723146e+01
1.34620463e+01
1.37262034e+01
1.40064454e+01
1.46119185e+01
1.52580882e+01
1.49652881e+01
1.46885565e+01
1.40586079e+01
1.46885552e+01
1.49652895e+01
1.52580855e+01
1.59037529e+01
1.65900962e+01
1.62848189e+01
1.59954811e+01
1.53253247e+01
1.59954782e+01
1.62848183e+01
1.65900928e+01
1.72760092e+01
1.80025759e+01
1.76845748e+01
1.73828989e+01
1.66725063e+01
1.73829417e+01
1.76844884e+01
1.80026223e+01
1.87285348e+01
1.94949407e+01
1.91652332e+01
1.88503863e+01
1.81000810e+01
6.61339999e+00
6.78791582e+00
6.97486347e+00
7.04412516e+00
7.11601785e+00
6.92452037e+00
6.74824174e+00
6.67951209e+00
6.74823483e+00
6.92453315e+00
7.11602362e+00
7.18761101e+00
7.26171512e+00
7.06703159e+00
6.88773520e+00
6.81667763e+00
6.88774793e+00
7.06702442e+00
7.26171382e+00
7.33586001e+00
7.41251901e+00
7.21459931e+00
7.03227530e+00
6.95874926e+00
7.03228219e+00
7.21458520e+00
7.41253444e+00
7.48919468e+00
7.56832724e+00
7.36714628e+00
7.18185306e+00
7.10578646e+00
7.18185650e+00
7.36713199e+00
7.56833666e+00
7.64748041e+00
7.72915162e+00
7.52480233e+00
7.33644646e+00
7.25789393e+00
7.33644418e+00
7.52480553e+00
7.72915188e+00
7.81085100e+00
7.89509262e+00
7.68760878e+00
7.49601416e+00
7.41496936e+00
7.49600701e+00
7.68762564e+00
7.89508353e+00
7.97932628e+00
8.06605617e+00
7.85557287e+00
7.66060945e+00
7.57701886e+00
7.66060303e+00
7.85558431e+00
8.06603826e+00
8.15277006e+00
8.24195289e+00
8.02846143e+00
7.83033688e+00
7.74419337e+00
7.83034432e+00
8.02843653e+00
8.24196431e+00
8.33120657e+00
8.42307225e+00
8.20627719e+00
8.00510489e+00
7.91645757e+00
8.00509832e+00
8.20631409e+00
8.42306863e+00
8.51493947e+00
8.60912311e+00
8.38931642e+00
8.18506692e+00
8.09377574e+00
8.18495071e+00
8.38911858e+00
8.60905803e+00
8.98614908e+00
9.40359989e+00
9.17114595e+00
8.95451179e+00
8.54977310e+00
8.95451533e+00
9.17117566e+00
9.40358045e+00
9.82076751e+00
1.02783334e+01
1.00332935e+01
9.80415750e+00
9.35917181e+00
9.80416812e+00
1.00332578e+01
1.02783324e+01
1.07355635e+01
1.12333772e+01
1.09758868e+01
1.07341636e+01
1.02490447e+01
1.07341599e+01
1.09758991e+01
1.12333677e+01
1.17309017e+01
1.22688985e+01
1.19988580e+01
1.17444484e+01
1.12191474e+01
1.17444486e+01
1.19988615e+01
1.22688998e+01
1.28066058e+01
1.33848111e+01
1.31021696e+01
1.28351816e+01
1.22696337e+01
1.28351827e+01
1.31021684e+01
1.33848128e+01
1.39627079e+01
1.45811193e+01
1.42859167e+01
1.40063885e+01
1.34006032e+01
1.40063883e+01
1.42859146e+01
1.45811189e+01
1.51992285e+01
1.58578434e+01
1.55500706e+01
1.52580371e+01
1.46120446e+01
1.52580389e+01
1.55500650e+01
1.58578478e+01
1.65161567e+01
1.72150243e+01
1.68946332e+01
1.65900410e+01
1.59038923e+01
1.65900301e+01
1.68946556e+01
1.72150253e+01
1.79136328e+01
1.86526456e+01
1.83195622e+01
1.80025154e+01
1.72761068e+01
1.80025676e+01
1.83194430e+01
1.86527164e+01
1.93912458e+01
2.01702502e+01
1.98254665e+01
1.94948877e+01
1.87286641e+01
6.97487319e+00
7.16491024e+00
7.36752378e+00
7.43990740e+00
7.51494907e+00
7.30773237e+00
7.11602427e+00
7.04412841e+00
7.11602881e+00
7.30775104e+00
7.51494465e+00
7.58973040e+00
7.66702840e+00
7.45651031e+00
7.26171163e+00
7.18762495e+00
7.26171905e+00
7.45649994e+00
7.66705095e+00
7.74431507e+00
7.82415631e+00
7.61028180e+00
7.41251519e+00
7.33583129e+00
7.41252366e+00
7.61026724e+00
7.82415867e+00
7.90395649e+00
7.98632314e+00
7.76934928e+00
7.56832511e+00
7.48916604e+00
7.56832038e+00
7.76935262e+00
7.98630736e+00
8.06864572e+00
8.15345132e+00
7.93355404e+00
7.72915132e+00
7.64746892e+00
7.72914561e+00
7.93355697e+00
8.15344082e+00
8.23826596e+00
8.32552935e+00
8.10259209e+00
7.89509926e+00
7.81086690e+00
7.89509990e+00
8.10258250e+00
8.32553796e+00
8.41283332e+00
8.50266086e+00
8.27646118e+00
8.06606182e+00
7.97935791e+00
8.06606310e+00
8.27645981e+00
8.50267708e+00
8.59250774e+00
8.68499513e+00
8.45553258e+00
8.24194932e+00
8.15274636e+00
8.24194704e+00
8.45556076e+00
8.68498577e+00
8.77744790e+00
8.87234876e+00
8.63991729e+00
8.42307443e+00
8.33118182e+00
8.42307274e+00
8.63989070e+00
8.87233839e+00
8.96721139e+00
9.06454007e+00
8.82899055e+00
8.60914117e+00
8.51493581e+00
8.60908670e+00
8.82892595e+00
9.06451766e+00
9.45402665e+00
9.88417703e+00
9.63604460e+00
9.40362992e+00
8.98609973e+00
9.40360990e+00
9.63599075e+00
9.88417620e+00
1.03136900e+01
1.07840387e+01
1.05233990e+01
1.02783882e+01
9.82070435e+00
1.02783764e+01
1.05234408e+01
1.07840522e+01
1.12538872e+01
1.17642369e+01
1.14909350e+01
1.12333976e+01
1.07354576e+01
1.12333997e+01
1.14909236e+01
1.17642396e+01
1.22741379e+01
1.28247463e+01
1.25389459e+01
1.22689433e+01
1.17308052e+01
1.22689417e+01
1.25389425e+01
1.28247438e+01
1.33749023e+01
1.39657391e+01
1.36674178e+01
1.33848576e+01
1.28065386e+01
1.33848586e+01
1.36674198e+01
1.39657353e+01
1.45561328e+01
1.51872156e+01
1.48763269e+01
1.45811620e+01
1.39626430e+01
1.45811612e+01
1.48763289e+01
1.51872180e+01
1.58178604e+01
1.64891908e+01
1.61656600e+01
1.58578765e+01
1.51991444e+01
1.58578767e+01
1.61656657e+01
1.64891905e+01
1.71600623e+01
1.78715280e+01
1.75355314e+01
1.72150663e+01
1.65160546e+01
1.72150743e+01
1.75355070e+01
1.78715139e+01
1.85825024e+01
1.93343007e+01
1.89854227e+01
1.86526744e+01
1.79135677e+01
1.86527447e+01
1.89853692e+01
1.93343676e+01
2.00853481e+01
2.08770565e+01
2.05165912e+01
2.01702799e+01
1.93911894e+01
7.36752601e+00
7.57327465e+00
7.79172327e+00
7.86726479e+00
7.94547467e+00
7.72246965e+00
7.51494286e+00
7.43989946e+00
7.51494009e+00
7.72247708e+00
7.94547460e+00
8.02342173e+00
8.10387608e+00
7.87767880e+00
7.66701888e+00
7.58971162e+00
7.66703091e+00
7.87767065e+00
8.10388177e+00
8.18431390e+00
8.26721005e+00
8.03783114e+00
7.82415114e+00
7.74431174e+00
7.82415621e+00
8.03781347e+00
8.26721464e+00
8.35009924e+00
8.43549490e+00
8.20298825e+00
7.98633045e+00
7.90399287e+00
7.98632769e+00
8.20298443e+00
8.43549918e+00
8.52091373e+00
8.60885446e+00
8.37319998e+00
8.15345620e+00
8.06865680e+00
8.15345261e+00
8.37320448e+00
8.60885695e+00
8.69680411e+00
8.78730444e+00
8.54849869e+00
8.32553410e+00
8.23824700e+00
8.32553525e+00
8.54850375e+00
8.78730095e+00
8.87779918e+00
8.97086185e+00
8.72893380e+00
8.50266078e+00
8.41282147e+00
8.50266197e+00
8.72894103e+00
8.97085509e+00
9.06392916e+00
9.15947765e+00
8.91446500e+00
8.68498327e+00
8.59251377e+00
8.68497856e+00
8.91446129e+00
9.15947040e+00
9.25499842e+00
9.35294693e+00
9.10480305e+00
8.87234346e+00
8.77745559e+00
8.87234331e+00
9.10479402e+00
9.35295790e+00
9.45092012e+00
9.55144384e+00
9.30010713e+00
9.06453677e+00
8.96719979e+00
9.06450547e+00
9.30010677e+00
9.55143307e+00
9.95349011e+00
1.03960430e+01
1.01322639e+01
9.88417514e+00
9.45403980e+00
9.88416342e+00
1.01323139e+01
1.03960826e+01
1.08384493e+01
1.13209543e+01
1.10445987e+01
1.07840159e+01
1.03136901e+01
1.07840262e+01
1.10446057e+01
1.13209351e+01
1.18036394e+01
1.23263842e+01
1.20374897e+01
1.17642112e+01
1.12539374e+01
1.17642127e+01
1.20374892e+01
1.23263974e+01
1.28491583e+01
1.34120644e+01
1.31105311e+01
1.28247181e+01
1.22741723e+01
1.28247215e+01
1.31105237e+01
1.34120694e+01
1.39750166e+01
1.45781476e+01
1.42640423e+01
1.39657144e+01
1.33749142e+01
1.39657088e+01
1.42640522e+01
1.45781466e+01
1.51813380e+01
1.58247476e+01
1.54980941e+01
1.51871907e+01
1.45561544e+01
1.51871939e+01
1.54980867e+01
1.58247469e+01
1.64682084e+01
1.71518378e+01
1.68126408e+01
1.64891684e+01
1.58178832e+01
1.64891656e+01
1.68126466e+01
1.71518285e+01
1.78354841e+01
1.85592124e+01
1.82075390e+01
1.78715065e+01
1.71601112e+01
1.78714936e+01
1.82075418e+01
1.85592193e+01
1.92831784e+01
2.00472882e+01
1.96828122e+01
1.93342834e+01
1.85825128e+01
1.93343624e+01
1.96826738e+01
2.00473159e+01
2.08110527e+01
2.16152560e+01
2.12391007e+01
2.08770421e+01
2.00853541e+01
7.79178459e+00
8.01316736e+00
8.24740120e+00
8.40474197e+00
8.57191768e+00
8.24652157e+00
7.94555615e+00
7.86721445e+00
7.94551655e+00
8.24652321e+00
8.57191503e+00
8.73904251e+00
8.91619174e+00
8.49077611e+00
8.10387144e+00
8.02350198e+00
8.10389243e+00
8.49072667e+00
8.91620798e+00
9.09326977e+00
9.28057972e+00
8.74509678e+00
8.26721049e+00
8.18432001e+00
8.26719831e+00
8.74511618e+00
9.28056460e+00
9.46780479e+00
9.66513908e+00
9.00976833e+00
8.43547012e+00
8.35006345e+00
8.43546238e+00
9.00977739e+00
9.66512501e+00
9.86244764e+00
1.00697890e+01
9.28446684e+00
8.60884365e+00
8.52087250e+00
8.60884384e+00
9.28445920e+00
1.00697847e+01
1.02771441e+01
1.04945186e+01
9.56910817e+00
8.78735322e+00
8.69683207e+00
8.78736056e+00
9.56909119e+00
1.04945293e+01
1.07119417e+01
1.09393941e+01
9.86366779e+00
8.97093623e+00
8.87790656e+00
8.97094144e+00
9.86366137e+00
1.09394073e+01
1.11668697e+01
1.14044326e+01
1.01683425e+01
9.15944556e+00
9.06396287e+00
9.15943558e+00
1.01683661e+01
1.14044270e+01
1.16419534e+01
1.18895498e+01
1.04832541e+01
9.35287759e+00
9.25489219e+00
9.35287030e+00
1.04832627e+01
1.18895378e+01
1.21371060e+01
1.23947140e+01
1.08082371e+01
9.55138280e+00
9.45085283e+00
9.55137857e+00
1.08082324e+01
1.23947078e+01
1.27811734e+01
1.31901576e+01
1.16552136e+01
1.03960864e+01
9.95358839e+00
1.03961005e+01
1.16551400e+01
1.31902109e+01
1.35992631e+01
1.40309549e+01
1.25626001e+01
1.13209429e+01
1.08383838e+01
1.13209429e+01
1.25626261e+01
1.40309247e+01
1.44625685e+01
1.49167978e+01
1.35301915e+01
1.23264026e+01
1.18036403e+01
1.23264146e+01
1.35301794e+01
1.49168095e+01
1.53710479e+01
1.58479408e+01
1.45580141e+01
1.34120579e+01
1.28491385e+01
1.34120649e+01
1.45580293e+01
1.58479374e+01
1.63248184e+01
1.68243695e+01
1.56462874e+01
1.45781496e+01
1.39750075e+01
1.45781526e+01
1.56462837e+01
1.68243617e+01
1.73238765e+01
1.78460101e+01
1.67948910e+01
1.58247474e+01
1.51813161e+01
1.58247529e+01
1.67948922e+01
1.78460032e+01
1.83681431e+01
1.89128949e+01
1.80037185e+01
1.71518453e+01
1.64682299e+01
1.71518503e+01
1.80037179e+01
1.89129073e+01
1.94576511e+01
2.00251397e+01
1.92730168e+01
1.85592086e+01
1.78354561e+01
1.85592060e+01
1.92730648e+01
2.00250993e+01
2.05925549e+01
2.11824632e+01
2.06023957e+01
2.00472733e+01
1.92832071e+01
2.00472924e+01
2.06023116e+01
2.11825515e+01
2.17722397e+01
2.23848422e+01
2.19930735e+01
2.16152395e+01
2.08110860e+01
8.24749809e+00
8.48416069e+00
8.73439753e+00
8.97956303e+00
9.24738630e+00
8.89717549e+00
8.57201453e+00
8.40461001e+00
8.57195291e+00
8.89725156e+00
9.24738234e+00
9.51497669e+00
9.80522776e+00
9.34146389e+00
8.91620231e+00
8.73900044e+00
8.91620073e+00
9.34149386e+00
9.80522862e+00
1.00954946e+01
1.04084048e+01
9.81597837e+00
9.28057276e+00
9.09331213e+00
9.28056507e+00
9.81596586e+00
1.04083996e+01
1.07213112e+01
1.10568216e+01
1.03204388e+01
9.66513781e+00
9.46782447e+00
9.66513548e+00
1.03204332e+01
1.10568309e+01
1.13923691e+01
1.17505549e+01
1.08551156e+01
1.00697873e+01
9.86244948e+00
1.00697841e+01
1.08551229e+01
1.17505583e+01
1.21087057e+01
1.24895042e+01
1.14200644e+01
1.04945156e+01
1.02771073e+01
1.04945141e+01
1.14200743e+01
1.24894932e+01
1.28703012e+01
1.32736812e+01
1.20151947e+01
1.09393975e+01
1.07119222e+01
1.09394039e+01
1.20151802e+01
1.32736853e+01
1.36770721e+01
1.41030664e+01
1.26403494e+01
1.14044318e+01
1.11668925e+01
1.14044319e+01
1.26403459e+01
1.41030730e+01
1.45290850e+01
1.49777266e+01
1.32956966e+01
1.18895279e+01
1.16419661e+01
1.18895216e+01
1.32957106e+01
1.49777241e+01
1.54263452e+01
1.58975839e+01
1.39812727e+01
1.23946897e+01
1.21370732e+01
1.23946879e+01
1.39812784e+01
1.58975771e+01
1.62117217e+01
1.65359049e+01
1.47252584e+01
1.31901851e+01
1.27811087e+01
1.31902067e+01
1.47252270e+01
1.65359095e+01
1.68601117e+01
1.71943778e+01
1.54992232e+01
1.40309344e+01
1.35992883e+01
1.40309256e+01
1.54992340e+01
1.71943813e+01
1.75286381e+01
1.78729647e+01
1.63034739e+01
1.49168044e+01
1.44625501e+01
1.49168080e+01
1.63034720e+01
1.78729611e+01
1.82172865e+01
1.85716484e+01
1.71378505e+01
1.58479507e+01
1.53710655e+01
1.58479534e+01
1.71378439e+01
1.85716534e+01
1.89260279e+01
1.92904569e+01
1.80023576e+01
1.68243756e+01
1.63248490e+01
1.68243711e+01
1.80023608e+01
1.92904634e+01
1.96548971e+01
2.00294094e+01
1.88971189e+01
1.78460014e+01
1.73238727e+01
1.78459959e+01
1.88971331e+01
2.00294041e+01
2.04038905e+01
2.07884554e+01
1.98221673e+01
1.89128916e+01
1.83681258e+01
1.89128883e+01
1.98221723e+01
2.07884467e+01
2.11730220e+01
2.15675796e+01
2.07771577e+01
2.00251333e+01
1.94576998e+01
2.00251222e+01
2.07771123e+01
2.15675949e+01
2.19620870e+01
2.23668313e+01
2.17622437e+01
2.11824682e+01
2.05925080e+01
2.11824921e+01
2.17621995e+01
2.23668852e+01
2.27712058e+01
2.31858338e+01
2.27785216e+01
2.23847842e+01
2.17723162e+01
8.73444966e+00
8.98663485e+00
9.25278097e+00
9.59218966e+00
9.97188352e+00
9.59708203e+00
9.24743855e+00
8.97948313e+00
9.24737629e+00
9.59716146e+00
9.97184422e+00
1.03513060e+01
1.07709244e+01
1.02689740e+01
9.80522164e+00
9.51500477e+00
9.80523074e+00
1.02689741e+01
1.07709344e+01
1.11906475e+01
1.16505535e+01
1.10008667e+01
1.04084054e+01
1.00954961e+01
1.04084056e+01
1.10008573e+01
1.16505647e+01
1.21104982e+01
1.26107150e+01
1.17932177e+01
1.10568200e+01
1.07212901e+01
1.10568214e+01
1.17932258e+01
1.26107068e+01
1.31108800e+01
1.36512597e+01
1.26459642e+01
1.17505511e+01
1.13923649e+01
1.17505526e+01
1.26459664e+01
1.36512568e+01
1.41916594e+01
1.47721801e+01
1.35589099e+01
1.24894983e+01
1.21087169e+01
1.24894970e+01
1.35589029e+01
1.47721819e+01
1.53527306e+01
1.59735392e+01
1.45321943e+01
1.32736826e+01
1.28703025e+01
1.32736837e+01
1.45322072e+01
1.59735384e+01
1.65943350e+01
1.72553038e+01
1.55658336e+01
1.41030606e+01
1.36770471e+01
1.41030648e+01
1.55658311e+01
1.72552959e+01
1.79162794e+01
1.86174637e+01
1.66596894e+01
1.49777413e+01
1.45290978e+01
1.49777478e+01
1.66596703e+01
1.86174740e+01
1.93186839e+01
2.00601446e+01
1.78137908e+01
1.58975990e+01
1.54263851e+01
1.58975964e+01
1.78137993e+01
2.00601505e+01
2.02455156e+01
2.04333951e+01
1.83466331e+01
1.65359245e+01
1.62117298e+01
1.65359252e+01
1.83466337e+01
2.04333941e+01
2.06212722e+01
2.08116642e+01
1.88895276e+01
1.71943826e+01
1.68601255e+01
1.71943813e+01
1.88895294e+01
2.08116629e+01
2.10020489e+01
2.11949529e+01
1.94424985e+01
1.78729484e+01
1.75286352e+01
1.78729453e+01
1.94425029e+01
2.11949477e+01
2.13878361e+01
2.15832461e+01
2.00055526e+01
1.85716320e+01
1.82172568e+01
1.85716321e+01
2.00055518e+01
2.15832397e+01
2.17786417e+01
2.19765503e+01
2.05786226e+01
1.92904590e+01
1.89260137e+01
1.92904632e+01
2.05786135e+01
2.19765504e+01
2.21744731e+01
2.23748936e+01
2.11616449e+01
2.00294197e+01
1.96549256e+01
2.00294216e+01
2.11616367e+01
2.23749030e+01
2.25753530e+01
2.27782974e+01
2.17546503e+01
2.07884593e+01
2.04039229e+01
2.07884644e+01
2.17546504e+01
2.27783114e+01
2.29812463e+01
2.31867073e+01
2.23578416e+01
2.15675791e+01
2.11729609e+01
2.15675761e+01
2.23578890e+01
2.31866878e+01
2.33921862e+01
2.36001255e+01
2.29712207e+01
2.23667960e+01
2.19621153e+01
2.23667937e+01
2.29712058e+01
2.36001548e+01
2.38077289e+01
2.40182363e+01
2.35954934e+01
2.31857510e+01
2.27713343e+01
9.25279154e+00
9.52066180e+00
9.80256859e+00
1.01104899e+01
1.04494511e+01
1.02037497e+01
9.97189531e+00
9.59217248e+00
9.97184656e+00
1.02038503e+01
1.04493905e+01
1.07880526e+01
1.11573950e+01
1.09582437e+01
1.07709211e+01
1.03513102e+01
1.07709348e+01
1.09582383e+01
1.11574067e+01
1.15268108e+01
1.19270448e+01
1.17828035e+01
1.16505557e+01
1.11906391e+01
1.16505626e+01
1.17828020e+01
1.19270458e+01
1.23272512e+01
1.27582876e+01
1.26778746e+01
1.26107140e+01
1.21104951e+01
1.26107101e+01
1.26778886e+01
1.27582806e+01
1.31893509e+01
1.36511966e+01
1.36434040e+01
1.36512528e+01
1.31108978e+01
1.36512523e+01
1.36433965e+01
1.36512049e+01
1.41130594e+01
1.46056702e+01
1.46791854e+01
1.47721848e+01
1.41916418e+01
1.47721817e+01
1.46791905e+01
1.46056695e+01
1.50982593e+01
1.56216418e+01
1.57853202e+01
1.59735345e+01
1.53527328e+01
1.59735383e+01
1.57853057e+01
1.56216422e+01
1.61450221e+01
1.66992017e+01
1.69618365e+01
1.72553191e+01
1.65943374e+01
1.72553152e+01
1.69618447e+01
1.66991944e+01
1.72533857e+01
1.78383310e+01
1.82087609e+01
1.86174702e+01
1.79162961e+01
1.86174729e+01
1.82087637e+01
1.78383363e+01
1.84232861e+01
1.90390495e+01
1.95260110e+01
2.00601323e+01
1.93186730e+01
2.00601325e+01
1.95260072e+01
1.90390522e+01
1.93029417e+01
1.95724980e+01
1.99837512e+01
2.04333864e+01
2.02455011e+01
2.04333866e+01
1.99837496e+01
1.95724976e+01
1.98420497e+01
2.01172677e+01
2.04490603e+01
2.08116613e+01
2.06212683e+01
2.08116603e+01
2.04490623e+01
2.01172658e+01
2.03924876e+01
2.06733585e+01
2.09219140e+01
2.11949509e+01
2.10020484e+01
2.11949488e+01
2.09219182e+01
2.06733570e+01
2.09542355e+01
2.12407508e+01
2.14022876e+01
2.15832479e+01
2.13878405e+01
2.15832456e+01
2.14022894e+01
2.12407509e+01
2.15272753e+01
2.18194393e+01
2.18901594e+01
2.19765558e+01
2.17786477e+01
2.19765581e+01
2.18901569e+01
2.18194421e+01
2.21116135e+01
2.24094363e+01
2.23855375e+01
2.23748979e+01
2.21744774e+01
2.23749036e+01
2.23855314e+01
2.24094401e+01
2.27072544e+01
2.30107567e+01
2.28884608e+01
2.27782899e+01
2.25753464e+01
2.27782932e+01
2.28884643e+01
2.30107584e+01
2.33142414e+01
2.36233856e+01
2.33990404e+01
2.31867086e+01
2.29812252e+01
2.31866985e+01
2.33990442e+01
2.36233720e+01
2.39325070e+01
2.42472991e+01
2.39171709e+01
2.36001225e+01
2.33921580e+01