# vtk DataFile Version 3.0 
Date: 3/21/2016   Time: 14:2
ASCII 
DATASET UNSTRUCTURED_GRID 
 
POINTS 880 float 
0.000000 0.000000 0.000000 
0.031250 0.000000 0.000000 
0.062500 0.000000 0.000000 
0.062500 0.031250 0.000000 
0.062500 0.062500 0.000000 
0.031250 0.062500 0.000000 
0.000000 0.062500 0.000000 
0.000000 0.031250 0.000000 
0.000000 0.062500 0.000000 
0.031250 0.062500 0.000000 
0.062500 0.062500 0.000000 
0.089773 0.089773 0.000000 
0.117045 0.117045 0.000000 
0.103835 0.152273 0.000000 
0.090625 0.187500 0.000000 
0.045312 0.187500 0.000000 
0.000000 0.187500 0.000000 
0.000000 0.125000 0.000000 
0.000000 0.187500 0.000000 
0.045312 0.187500 0.000000 
0.090625 0.187500 0.000000 
0.104366 0.242463 0.000000 
0.118107 0.297426 0.000000 
0.114647 0.304963 0.000000 
0.111187 0.312500 0.000000 
0.055593 0.312500 0.000000 
0.000000 0.312500 0.000000 
0.000000 0.250000 0.000000 
0.000000 0.312500 0.000000 
0.055593 0.312500 0.000000 
0.111187 0.312500 0.000000 
0.113546 0.341292 0.000000 
0.115906 0.370084 0.000000 
0.111703 0.381292 0.000000 
0.107500 0.392500 0.000000 
0.085000 0.415000 0.000000 
0.062500 0.437500 0.000000 
0.031250 0.437500 0.000000 
0.000000 0.437500 0.000000 
0.000000 0.375000 0.000000 
0.000000 0.437500 0.000000 
0.031250 0.437500 0.000000 
0.062500 0.437500 0.000000 
0.062500 0.462500 0.000000 
0.062500 0.487500 0.000000 
0.031250 0.518750 0.000000 
0.000000 0.550000 0.000000 
0.000000 0.493750 0.000000 
0.000000 0.570833 0.000000 
0.021930 0.585454 0.000000 
0.043860 0.600074 0.000000 
0.021930 0.622004 0.000000 
0.000000 0.643934 0.000000 
0.000000 0.607384 0.000000 
0.000000 0.695277 0.000000 
0.039283 0.702290 0.000000 
0.078566 0.709302 0.000000 
0.077647 0.716287 0.000000 
0.076728 0.723272 0.000000 
0.038364 0.761636 0.000000 
0.000000 0.800000 0.000000 
0.000000 0.747639 0.000000 
0.000000 0.820833 0.000000 
0.053750 0.856667 0.000000 
0.107500 0.892500 0.000000 
0.085000 0.915000 0.000000 
0.062500 0.937500 0.000000 
0.031250 0.937500 0.000000 
0.000000 0.937500 0.000000 
0.000000 0.879166 0.000000 
0.000000 0.937500 0.000000 
0.031250 0.937500 0.000000 
0.062500 0.937500 0.000000 
0.062500 0.968750 0.000000 
0.062500 1.000000 0.000000 
0.031250 1.000000 0.000000 
0.000000 1.000000 0.000000 
0.000000 0.968750 0.000000 
0.062500 0.000000 0.000000 
0.125000 0.000000 0.000000 
0.187500 0.000000 0.000000 
0.187500 0.045312 0.000000 
0.187500 0.090625 0.000000 
0.152273 0.103835 0.000000 
0.117045 0.117045 0.000000 
0.089773 0.089773 0.000000 
0.062500 0.062500 0.000000 
0.062500 0.031250 0.000000 
0.117045 0.117045 0.000000 
0.152273 0.103835 0.000000 
0.187500 0.090625 0.000000 
0.242463 0.104366 0.000000 
0.297426 0.118107 0.000000 
0.282542 0.192882 0.000000 
0.267657 0.267657 0.000000 
0.192882 0.282542 0.000000 
0.118107 0.297426 0.000000 
0.104366 0.242463 0.000000 
0.090625 0.187500 0.000000 
0.103835 0.152273 0.000000 
0.111187 0.312500 0.000000 
0.114647 0.304963 0.000000 
0.118107 0.297426 0.000000 
0.192882 0.282542 0.000000 
0.267657 0.267657 0.000000 
0.298044 0.298044 0.000000 
0.328432 0.328432 0.000000 
0.318720 0.365778 0.000000 
0.309008 0.403124 0.000000 
0.299853 0.412279 0.000000 
0.290698 0.421434 0.000000 
0.283713 0.422353 0.000000 
0.276728 0.423272 0.000000 
0.196317 0.396678 0.000000 
0.115906 0.370084 0.000000 
0.113546 0.341292 0.000000 
0.107500 0.392500 0.000000 
0.111703 0.381292 0.000000 
0.115906 0.370084 0.000000 
0.196317 0.396678 0.000000 
0.276728 0.423272 0.000000 
0.236360 0.463640 0.000000 
0.195992 0.504008 0.000000 
0.180533 0.491434 0.000000 
0.165074 0.478860 0.000000 
0.136287 0.435680 0.000000 
0.062500 0.437500 0.000000 
0.085000 0.415000 0.000000 
0.107500 0.392500 0.000000 
0.136287 0.435680 0.000000 
0.165074 0.478860 0.000000 
0.132574 0.511360 0.000000 
0.100074 0.543860 0.000000 
0.081287 0.515680 0.000000 
0.062500 0.487500 0.000000 
0.062500 0.462500 0.000000 
0.000000 0.550000 0.000000 
0.031250 0.518750 0.000000 
0.062500 0.487500 0.000000 
0.081287 0.515680 0.000000 
0.100074 0.543860 0.000000 
0.100828 0.546140 0.000000 
0.101581 0.548419 0.000000 
0.075000 0.575000 0.000000 
0.048419 0.601581 0.000000 
0.046140 0.600828 0.000000 
0.043860 0.600074 0.000000 
0.021930 0.585454 0.000000 
0.000000 0.570833 0.000000 
0.000000 0.560417 0.000000 
0.000000 0.643934 0.000000 
0.021930 0.622004 0.000000 
0.043860 0.600074 0.000000 
0.046140 0.600828 0.000000 
0.048419 0.601581 0.000000 
0.072647 0.646286 0.000000 
0.096876 0.690992 0.000000 
0.087721 0.700147 0.000000 
0.078566 0.709302 0.000000 
0.039283 0.702290 0.000000 
0.000000 0.695277 0.000000 
0.000000 0.669606 0.000000 
0.000000 0.820833 0.000000 
0.000000 0.810417 0.000000 
0.000000 0.800000 0.000000 
0.038364 0.761636 0.000000 
0.076728 0.723272 0.000000 
0.103322 0.803683 0.000000 
0.129916 0.884094 0.000000 
0.118708 0.888297 0.000000 
0.107500 0.892500 0.000000 
0.053750 0.856667 0.000000 
0.107500 0.892500 0.000000 
0.118708 0.888297 0.000000 
0.129916 0.884094 0.000000 
0.158708 0.886454 0.000000 
0.187500 0.888813 0.000000 
0.187500 0.944406 0.000000 
0.187500 1.000000 0.000000 
0.125000 1.000000 0.000000 
0.062500 1.000000 0.000000 
0.062500 0.968750 0.000000 
0.062500 0.937500 0.000000 
0.085000 0.915000 0.000000 
0.187500 0.000000 0.000000 
0.250000 0.000000 0.000000 
0.312500 0.000000 0.000000 
0.312500 0.055593 0.000000 
0.312500 0.111187 0.000000 
0.304963 0.114647 0.000000 
0.297426 0.118107 0.000000 
0.242463 0.104366 0.000000 
0.187500 0.090625 0.000000 
0.187500 0.045312 0.000000 
0.297426 0.118107 0.000000 
0.304963 0.114647 0.000000 
0.312500 0.111187 0.000000 
0.341292 0.113546 0.000000 
0.370084 0.115906 0.000000 
0.396678 0.196317 0.000000 
0.423272 0.276728 0.000000 
0.422353 0.283713 0.000000 
0.421434 0.290698 0.000000 
0.412279 0.299853 0.000000 
0.403124 0.309008 0.000000 
0.365778 0.318720 0.000000 
0.328432 0.328432 0.000000 
0.298044 0.298044 0.000000 
0.267657 0.267657 0.000000 
0.282542 0.192882 0.000000 
0.328432 0.328432 0.000000 
0.365778 0.318720 0.000000 
0.403124 0.309008 0.000000 
0.427353 0.353714 0.000000 
0.451581 0.398419 0.000000 
0.425000 0.425000 0.000000 
0.398419 0.451581 0.000000 
0.353714 0.427353 0.000000 
0.309008 0.403124 0.000000 
0.318720 0.365778 0.000000 
0.290698 0.421434 0.000000 
0.299853 0.412279 0.000000 
0.309008 0.403124 0.000000 
0.353714 0.427353 0.000000 
0.398419 0.451581 0.000000 
0.399173 0.453861 0.000000 
0.399926 0.456140 0.000000 
0.367426 0.488640 0.000000 
0.334926 0.521140 0.000000 
0.319467 0.508566 0.000000 
0.304008 0.495992 0.000000 
0.297353 0.458713 0.000000 
0.276728 0.423272 0.000000 
0.283713 0.422353 0.000000 
0.290698 0.421434 0.000000 
0.297353 0.458713 0.000000 
0.304008 0.495992 0.000000 
0.263640 0.536360 0.000000 
0.223272 0.576728 0.000000 
0.216287 0.577647 0.000000 
0.209302 0.578566 0.000000 
0.202647 0.541287 0.000000 
0.195992 0.504008 0.000000 
0.236360 0.463640 0.000000 
0.165074 0.478860 0.000000 
0.180533 0.491434 0.000000 
0.195992 0.504008 0.000000 
0.202647 0.541287 0.000000 
0.209302 0.578566 0.000000 
0.200147 0.587721 0.000000 
0.190992 0.596876 0.000000 
0.146286 0.572647 0.000000 
0.101581 0.548419 0.000000 
0.100828 0.546140 0.000000 
0.100074 0.543860 0.000000 
0.132574 0.511360 0.000000 
0.048419 0.601581 0.000000 
0.075000 0.575000 0.000000 
0.101581 0.548419 0.000000 
0.146286 0.572647 0.000000 
0.190992 0.596876 0.000000 
0.181280 0.634222 0.000000 
0.171568 0.671568 0.000000 
0.134222 0.681280 0.000000 
0.096876 0.690992 0.000000 
0.072647 0.646286 0.000000 
0.076728 0.723272 0.000000 
0.077647 0.716287 0.000000 
0.078566 0.709302 0.000000 
0.087721 0.700147 0.000000 
0.096876 0.690992 0.000000 
0.134222 0.681280 0.000000 
0.171568 0.671568 0.000000 
0.201956 0.701955 0.000000 
0.232343 0.732343 0.000000 
0.217459 0.807118 0.000000 
0.202574 0.881893 0.000000 
0.195037 0.885353 0.000000 
0.187500 0.888813 0.000000 
0.158708 0.886454 0.000000 
0.129916 0.884094 0.000000 
0.103322 0.803683 0.000000 
0.187500 0.888813 0.000000 
0.195037 0.885353 0.000000 
0.202574 0.881893 0.000000 
0.257537 0.895634 0.000000 
0.312500 0.909375 0.000000 
0.312500 0.954688 0.000000 
0.312500 1.000000 0.000000 
0.250000 1.000000 0.000000 
0.187500 1.000000 0.000000 
0.187500 0.944406 0.000000 
0.312500 0.000000 0.000000 
0.375000 0.000000 0.000000 
0.437500 0.000000 0.000000 
0.437500 0.031250 0.000000 
0.437500 0.062500 0.000000 
0.415000 0.085000 0.000000 
0.392500 0.107500 0.000000 
0.381292 0.111703 0.000000 
0.370084 0.115906 0.000000 
0.341292 0.113546 0.000000 
0.312500 0.111187 0.000000 
0.312500 0.055593 0.000000 
0.370084 0.115906 0.000000 
0.381292 0.111703 0.000000 
0.392500 0.107500 0.000000 
0.435680 0.136287 0.000000 
0.478860 0.165074 0.000000 
0.491434 0.180533 0.000000 
0.504008 0.195992 0.000000 
0.463640 0.236360 0.000000 
0.423272 0.276728 0.000000 
0.396678 0.196317 0.000000 
0.403124 0.309008 0.000000 
0.412279 0.299853 0.000000 
0.421434 0.290698 0.000000 
0.458713 0.297353 0.000000 
0.495992 0.304008 0.000000 
0.508566 0.319467 0.000000 
0.521140 0.334926 0.000000 
0.488640 0.367426 0.000000 
0.456140 0.399926 0.000000 
0.453861 0.399173 0.000000 
0.451581 0.398419 0.000000 
0.427353 0.353714 0.000000 
0.451581 0.398419 0.000000 
0.453861 0.399173 0.000000 
0.456140 0.399926 0.000000 
0.484320 0.418713 0.000000 
0.512500 0.437500 0.000000 
0.475000 0.475000 0.000000 
0.437500 0.512500 0.000000 
0.418713 0.484320 0.000000 
0.399926 0.456140 0.000000 
0.399173 0.453861 0.000000 
0.398419 0.451581 0.000000 
0.425000 0.425000 0.000000 
0.334926 0.521140 0.000000 
0.367426 0.488640 0.000000 
0.399926 0.456140 0.000000 
0.418713 0.484320 0.000000 
0.437500 0.512500 0.000000 
0.437500 0.537500 0.000000 
0.437500 0.562500 0.000000 
0.415000 0.585000 0.000000 
0.392500 0.607500 0.000000 
0.363713 0.564320 0.000000 
0.304008 0.495992 0.000000 
0.319467 0.508566 0.000000 
0.334926 0.521140 0.000000 
0.363713 0.564320 0.000000 
0.392500 0.607500 0.000000 
[...]
CELL_DATA 81
FIELD FieldData 1
material 1 81 int
1
1
1
1
1
1
1
1
1
1
1
1
1
1
1
1
1
1
1
1
1
1
1
1
1
1
1
1
1
1
1
1
1
1
1
1
1
1
1
1
1
1
1
1
1
1
1
1
1
1
1
1
1
1
1
1
1
1
1
1
1
1
1
1
1
1
1
1
1
1
1
1
1
1
1
1
1
1
1
1
1
POINT_DATA 880 SCALARS flux_g1 double 
LOOKUP_TABLE   default 
6.28409923e+00
6.48241304e+00
6.70285669e+00
6.91264140e+00
7.14691897e+00
6.91264140e+00
6.70285669e+00
6.48241304e+00
6.70298781e+00
6.91129309e+00
7.14730108e+00
7.55371799e+00
8.01661369e+00
8.20277821e+00
8.41519618e+00
8.02446815e+00
7.68493011e+00
7.15392478e+00
7.68496911e+00
8.02459353e+00
8.41487255e+00
9.03725522e+00
9.76257525e+00
9.80895873e+00
9.85960670e+00
9.32327548e+00
8.86327023e+00
8.23294495e+00
8.86317340e+00
9.32346776e+00
9.85920982e+00
1.01946178e+01
1.05557102e+01
1.06429426e+01
1.07353336e+01
1.07745077e+01
1.08287201e+01
1.05198823e+01
1.02373061e+01
9.50952692e+00
1.02371461e+01
1.05205590e+01
1.08286254e+01
1.11314202e+01
1.14521286e+01
1.15355397e+01
1.16418897e+01
1.09071380e+01
1.19188681e+01
1.23332329e+01
1.27716333e+01
1.28487663e+01
1.29361808e+01
1.24138663e+01
1.36912057e+01
1.42159761e+01
1.47872479e+01
1.48848315e+01
1.49851227e+01
1.51430890e+01
1.53335724e+01
1.44842800e+01
1.56769373e+01
1.68882198e+01
1.82503255e+01
1.83614081e+01
1.84862235e+01
1.80783465e+01
1.76985819e+01
1.66527772e+01
1.76983340e+01
1.80796816e+01
1.84856810e+01
1.90613796e+01
1.96617197e+01
1.92450491e+01
1.88504521e+01
1.82634828e+01
6.70298781e+00
7.15392478e+00
7.68493011e+00
8.02446815e+00
8.41519618e+00
8.20277821e+00
8.01661369e+00
7.55371799e+00
7.14730108e+00
6.91129309e+00
8.01589779e+00
8.20355245e+00
8.41424921e+00
9.03796141e+00
9.76198785e+00
1.03224679e+01
1.10000387e+01
1.03224679e+01
9.76198785e+00
9.03796141e+00
8.41424921e+00
8.20355245e+00
9.85892029e+00
9.81074707e+00
9.76185281e+00
1.03229162e+01
1.10001087e+01
1.16887626e+01
1.24466218e+01
1.27915020e+01
1.31647547e+01
1.31701179e+01
1.31781459e+01
1.31020190e+01
1.30279603e+01
1.16725753e+01
1.05553531e+01
1.01951135e+01
1.07342461e+01
1.06434795e+01
1.05549992e+01
1.16735648e+01
1.30276674e+01
1.30651150e+01
1.31418615e+01
1.27837395e+01
1.24407559e+01
1.15384371e+01
1.08283012e+01
1.07752858e+01
1.07344011e+01
1.15384035e+01
1.24408226e+01
1.25049083e+01
1.25959685e+01
1.20029870e+01
1.14518353e+01
1.11319524e+01
1.16419979e+01
1.15362631e+01
1.14518866e+01
1.20032455e+01
1.25959623e+01
1.26356821e+01
1.26750068e+01
1.27498779e+01
1.28413214e+01
1.28064925e+01
1.27718600e+01
1.23335709e+01
1.19190727e+01
1.17783094e+01
1.29365268e+01
1.28484033e+01
1.27722063e+01
1.28064907e+01
1.28414435e+01
1.37329647e+01
1.47163322e+01
1.47502864e+01
1.47867372e+01
1.42169871e+01
1.36911465e+01
1.33054329e+01
1.56771686e+01
1.55027008e+01
1.53337597e+01
1.51435706e+01
1.49851184e+01
1.65747466e+01
1.83970207e+01
1.83225918e+01
1.82501895e+01
1.68890294e+01
1.82510720e+01
1.83222516e+01
1.83971089e+01
1.88271511e+01
1.92817708e+01
2.03183364e+01
2.14292087e+01
2.05045968e+01
1.96620601e+01
1.90599502e+01
1.84864004e+01
1.83611957e+01
7.68496911e+00
8.23294495e+00
8.86327023e+00
9.32327548e+00
9.85960670e+00
9.80895873e+00
9.76257525e+00
9.03725522e+00
8.41487255e+00
8.02459353e+00
9.76185281e+00
9.81074707e+00
9.85892029e+00
1.01951135e+01
1.05553531e+01
1.16725753e+01
1.30279603e+01
1.31020190e+01
1.31781459e+01
1.31701179e+01
1.31647547e+01
1.27915020e+01
1.24466218e+01
1.16887626e+01
1.10001087e+01
1.03229162e+01
1.24463990e+01
1.27916637e+01
1.31647739e+01
1.40543830e+01
1.50356613e+01
1.50269101e+01
1.50356613e+01
1.40543830e+01
1.31647739e+01
1.27916637e+01
1.31778378e+01
1.31701056e+01
1.31648098e+01
1.40541607e+01
1.50357517e+01
1.50793584e+01
1.51233577e+01
1.51350899e+01
1.51731011e+01
1.47725729e+01
1.43868019e+01
1.37613130e+01
1.30278555e+01
1.31024773e+01
1.31778497e+01
1.37612259e+01
1.43867977e+01
1.44350298e+01
1.45251285e+01
1.44499697e+01
1.43761906e+01
1.37383087e+01
1.31419503e+01
1.30648385e+01
1.24407402e+01
1.27834044e+01
1.31422696e+01
1.37384559e+01
1.43760185e+01
1.43971661e+01
1.44199757e+01
1.35022190e+01
1.26750436e+01
1.26356671e+01
1.25959891e+01
1.25041399e+01
1.28412733e+01
1.27498346e+01
1.26752678e+01
1.35017014e+01
1.44199788e+01
1.48587055e+01
1.53266961e+01
1.50069895e+01
1.47160544e+01
1.37332940e+01
1.49854163e+01
1.48850279e+01
1.47871100e+01
1.47501934e+01
1.47159820e+01
1.50070338e+01
1.53270213e+01
1.61916763e+01
1.71255464e+01
1.81875885e+01
1.93678209e+01
1.93252143e+01
1.92812787e+01
1.88272417e+01
1.83974027e+01
1.65737533e+01
1.92821351e+01
1.93229354e+01
1.93683774e+01
2.04126150e+01
2.15598518e+01
2.24505703e+01
2.33927652e+01
2.23700300e+01
2.14292754e+01
2.03183481e+01
8.86317340e+00
9.50952692e+00
1.02373061e+01
1.05198823e+01
1.08287201e+01
1.07745077e+01
1.07353336e+01
1.06429426e+01
1.05557102e+01
1.01946178e+01
9.85920982e+00
9.32346776e+00
1.05549992e+01
1.06434795e+01
1.07342461e+01
1.15384371e+01
1.24407559e+01
1.27837395e+01
1.31418615e+01
1.30651150e+01
1.30276674e+01
1.16735648e+01
1.31648098e+01
1.31701056e+01
1.31778378e+01
1.37613130e+01
1.43868019e+01
1.47725729e+01
1.51731011e+01
1.51350899e+01
1.51233577e+01
1.50793584e+01
1.50357517e+01
1.40541607e+01
1.50357690e+01
1.50794748e+01
1.51233015e+01
1.57988570e+01
1.65167443e+01
1.64984157e+01
1.65167443e+01
1.57988570e+01
1.51233015e+01
1.50794748e+01
1.50357690e+01
1.50268759e+01
1.51730899e+01
1.51352015e+01
1.51232338e+01
1.57989716e+01
1.65166869e+01
1.69035027e+01
1.73059951e+01
1.73237155e+01
1.73542909e+01
1.62141571e+01
1.43869150e+01
1.47724992e+01
1.51730544e+01
1.62142384e+01
1.73542472e+01
1.74747867e+01
1.75976688e+01
1.59448322e+01
1.45250498e+01
1.44349681e+01
1.44200656e+01
1.43967749e+01
1.43762661e+01
1.44500845e+01
1.45251158e+01
1.59448604e+01
1.75976032e+01
1.81113592e+01
1.86481520e+01
1.87250626e+01
1.88036325e+01
1.79051595e+01
1.71252804e+01
1.61921617e+01
1.53268486e+01
1.48587129e+01
1.71252238e+01
1.79057267e+01
1.88034054e+01
1.99793567e+01
2.12542496e+01
2.17076635e+01
2.21848540e+01
2.18606685e+01
2.15595083e+01
2.04135324e+01
1.93679047e+01
1.81873251e+01
2.15601290e+01
2.18596605e+01
2.21855376e+01
2.31789364e+01
2.42299251e+01
2.48779757e+01
2.55522285e+01
2.44317654e+01
2.33926021e+01
2.24506429e+01
1.02371461e+01
1.09071380e+01
1.16418897e+01
1.15355397e+01
1.14521286e+01
1.11314202e+01
1.08286254e+01
1.05205590e+01
1.08283012e+01
1.11319524e+01
1.14518353e+01
1.20029870e+01
1.25959685e+01
1.25049083e+01
1.24408226e+01
1.15384035e+01
1.07344011e+01
1.07752858e+01
1.31419503e+01
1.37383087e+01
1.43761906e+01
1.44499697e+01
1.45251285e+01
1.44350298e+01
1.43867977e+01
1.37612259e+01
1.31778497e+01
1.31024773e+01
1.30278555e+01
1.30648385e+01
1.51232338e+01
1.51352015e+01
1.51730899e+01
1.62141571e+01
1.73542909e+01
1.73237155e+01
1.73059951e+01
1.69035027e+01
1.65166869e+01
1.57989716e+01
1.65167630e+01
1.69034721e+01
1.73059979e+01
1.82630811e+01
1.93189380e+01
1.82630811e+01
1.73059979e+01
1.69034721e+01
1.65167630e+01
1.64984377e+01
1.73542493e+01
1.73236191e+01
1.73059828e+01
1.82631041e+01
1.93189009e+01
2.02401346e+01
2.12171632e+01
2.16115435e+01
2.20298264e+01
2.02115001e+01
1.86478927e+01
1.81114575e+01
1.75975871e+01
1.74747890e+01
1.88035020e+01
1.87253234e+01
1.86478776e+01
2.02115664e+01
2.20298187e+01
2.33014015e+01
2.46729437e+01
2.47589550e+01
2.48464359e+01
2.29227772e+01
2.12545128e+01
1.99794271e+01
2.12545864e+01
2.29226107e+01
2.48464850e+01
2.54771093e+01
2.61299474e+01
2.62853938e+01
2.64419030e+01
2.64823516e+01
2.65362116e+01
2.53338599e+01
2.42291071e+01
2.31792680e+01
2.21853370e+01
2.17077575e+01
2.42291751e+01
2.53335819e+01
2.65360858e+01
2.72096464e+01
2.79083039e+01
2.66904564e+01
2.55520807e+01
2.48782775e+01
1.19188681e+01
1.24138663e+01
1.29361808e+01
1.28487663e+01
1.27716333e+01
1.23332329e+01
1.16419979e+01
1.17783094e+01
1.19190727e+01
1.23335709e+01
1.27718600e+01
1.28064925e+01
1.28413214e+01
1.27498779e+01
1.26750068e+01
1.26356821e+01
1.25959623e+01
1.20032455e+01
1.14518866e+01
1.15362631e+01
1.25959891e+01
1.26356671e+01
1.26750436e+01
1.35022190e+01
1.44199757e+01
1.43971661e+01
1.43760185e+01
1.37384559e+01
1.31422696e+01
1.27834044e+01
1.24407402e+01
1.25041399e+01
1.43869150e+01
1.44349681e+01
1.45250498e+01
1.59448322e+01
1.75976688e+01
1.74747867e+01
1.73542472e+01
1.62142384e+01
1.51730544e+01
1.47724992e+01
1.73059828e+01
1.73236191e+01
1.73542493e+01
1.74747890e+01
1.75975871e+01
1.81114575e+01
1.86478927e+01
2.02115001e+01
2.20298264e+01
2.16115435e+01
2.12171632e+01
2.02401346e+01
1.93189009e+01
1.82631041e+01
2.12171141e+01
2.16116237e+01
2.20299073e+01
2.33014950e+01
2.46729875e+01
2.57975843e+01
2.70402097e+01
2.57975843e+01
2.46729875e+01
2.33014950e+01
2.20299073e+01
2.16116237e+01
2.48460308e+01
2.47592374e+01
2.46729013e+01
2.57977911e+01
2.70401004e+01
2.83021774e+01
2.96330591e+01
3.02372546e+01
3.08709650e+01
3.08766332e+01
3.08848149e+01
3.07508574e+01
3.06194164e+01
2.82587476e+01
2.61305399e+01
2.54769702e+01
2.64418143e+01
2.62851124e+01
2.61305432e+01
2.82588137e+01
3.06194001e+01
3.06569694e+01
3.07270305e+01
3.05032014e+01
3.02849915e+01
2.82884619e+01
2.65369110e+01
2.64821601e+01
2.64419075e+01
2.82876001e+01
3.02846993e+01
2.90612060e+01
2.79085631e+01
2.72094542e+01
1.36912057e+01
1.44842800e+01
1.53335724e+01
1.51430890e+01
1.49851227e+01
1.48848315e+01
1.47872479e+01
1.42159761e+01
1.27722063e+01
1.28484033e+01
1.29365268e+01
1.33054329e+01
1.36911465e+01
1.42169871e+01
1.47867372e+01
1.47502864e+01
1.47163322e+01
1.37329647e+01
1.28414435e+01
1.28064907e+01
1.26752678e+01
1.27498346e+01
1.28412733e+01
1.37332940e+01
1.47160544e+01
1.50069895e+01
1.53266961e+01
1.48587055e+01
1.44199788e+01
1.35017014e+01
1.45251158e+01
1.44500845e+01
1.43762661e+01
1.43967749e+01
1.44200656e+01
1.48587129e+01
1.53268486e+01
1.61921617e+01
1.71252804e+01
1.79051595e+01
1.88036325e+01
1.87250626e+01
1.86481520e+01
1.81113592e+01
1.75976032e+01
1.59448604e+01
1.86478776e+01
1.87253234e+01
1.88035020e+01
1.99794271e+01
2.12545128e+01
2.29227772e+01
2.48464359e+01
2.47589550e+01
2.46729437e+01
2.33014015e+01
2.20298187e+01
2.02115664e+01
2.46729013e+01
2.47592374e+01
2.48460308e+01
2.54769702e+01
2.61305399e+01
2.82587476e+01
3.06194164e+01
3.07508574e+01
3.08848149e+01
3.08766332e+01
3.08709650e+01
3.02372546e+01
2.96330591e+01
2.83021774e+01
2.70401004e+01
2.57977911e+01
2.96327224e+01
3.02372381e+01
3.08711657e+01
3.24109599e+01
3.40412767e+01
3.40324098e+01
3.40412767e+01
3.24109599e+01
3.08711657e+01
3.02372381e+01
3.08843268e+01
3.08767485e+01
3.08712530e+01
3.24108955e+01
3.40413527e+01
3.41133718e+01
3.41863472e+01
3.41938863e+01
3.42131312e+01
3.36145290e+01
3.30325667e+01
3.19364320e+01
3.06194602e+01
3.07508387e+01
3.08848764e+01
3.19354057e+01
3.30326137e+01
3.18518295e+01
3.07268070e+01
3.06564640e+01
1.56769373e+01
1.66527772e+01
1.76985819e+01
1.80783465e+01
1.84862235e+01
1.83614081e+01
1.82503255e+01
1.68882198e+01
1.53337597e+01
1.55027008e+01
1.56771686e+01
1.68890294e+01
1.82501895e+01
1.83225918e+01
1.83970207e+01
1.65747466e+01
1.49851184e+01
1.51435706e+01
1.47159820e+01
1.47501934e+01
1.47871100e+01
1.48850279e+01
1.49854163e+01
1.65737533e+01
1.83974027e+01
1.88272417e+01
1.92812787e+01
1.93252143e+01
1.93678209e+01
1.81875885e+01
1.71255464e+01
1.61916763e+01
1.53270213e+01
1.50070338e+01
1.71252238e+01
1.81873251e+01
1.93679047e+01
2.04135324e+01
2.15595083e+01
2.18606685e+01
2.21848540e+01
2.17076635e+01
2.12542496e+01
1.99793567e+01
1.88034054e+01
1.79057267e+01
2.12545864e+01
2.17077575e+01
2.21853370e+01
2.31792680e+01
2.42291071e+01
2.53338599e+01
2.65362116e+01
2.64823516e+01
2.64419030e+01
2.62853938e+01
2.61299474e+01
2.54771093e+01
2.48464850e+01
2.29226107e+01
2.61305432e+01
2.62851124e+01
2.64418143e+01
2.82884619e+01
3.02849915e+01
3.05032014e+01
3.07270305e+01
3.06569694e+01
3.06194001e+01
2.82588137e+01
3.08712530e+01
3.08767485e+01
3.08843268e+01
3.19364320e+01
3.30325667e+01
3.36145290e+01
3.42131312e+01
3.41938863e+01
3.41863472e+01
3.41133718e+01
3.40413527e+01
3.24108955e+01
3.40410512e+01
3.41136727e+01
3.41860420e+01
3.50568879e+01
3.59513458e+01
3.62034465e+01
3.64591729e+01
3.64516913e+01
3.64591729e+01
3.62034465e+01
3.59513458e+01
3.50568879e+01
3.41860420e+01
3.41136727e+01
3.40410512e+01
3.40324821e+01
3.41858240e+01
3.50566595e+01
3.59513544e+01
3.50689861e+01
3.42129840e+01
3.41943101e+01
1.76983340e+01
1.82634828e+01
1.88504521e+01
1.92450491e+01
1.96617197e+01
1.90613796e+01
1.84856810e+01
1.80796816e+01
1.82510720e+01
1.83611957e+01
1.84864004e+01
1.90599502e+01
1.96620601e+01
2.05045968e+01
2.14292087e+01
2.03183364e+01
1.92817708e+01
1.88271511e+01
1.83971089e+01
1.83222516e+01
1.93683774e+01
1.93229354e+01
1.92821351e+01
2.03183481e+01
2.14292754e+01
2.23700300e+01
2.33927652e+01
2.24505703e+01
2.15598518e+01
2.04126150e+01
2.15601290e+01
2.24506429e+01
2.33926021e+01
2.44317654e+01
2.55522285e+01
2.48779757e+01
2.42299251e+01
2.31789364e+01
2.21855376e+01
2.18596605e+01
2.42291751e+01
2.48782775e+01
2.55520807e+01
2.66904564e+01
2.79083039e+01
2.72096464e+01
2.65360858e+01
2.53335819e+01
2.65369110e+01
2.72094542e+01
2.79085631e+01
2.90612060e+01
3.02846993e+01
2.82876001e+01
2.64419075e+01
2.64821601e+01
3.07268070e+01
3.18518295e+01
3.30326137e+01
3.19354057e+01
3.08848764e+01
3.07508387e+01
3.06194602e+01
3.06564640e+01
3.42129840e+01
3.50689861e+01
3.59513544e+01
3.50566595e+01
3.41858240e+01
3.41943101e+01
3.64590064e+01
3.70727646e+01
3.76995357e+01
3.70727646e+01
3.64590064e+01
3.64517280e+01
 
