# vtk DataFile Version 3.0 
Date: 3/21/2016   Time: 14:2
ASCII 
DATASET UNSTRUCTURED_GRID 
 
POINTS 880 float 
0.000000 0.000000 0.000000 
0.031250 0.000000 0.000000 
0.062500 0.000000 0.000000 
0.062500 0.031250 0.000000 
0.062500 0.062500 0.000000 
0.031250 0.062500 0.000000 
0.000000 0.062500 0.000000 
0.000000 0.031250 0.000000 
0.000000 0.062500 0.000000 
0.031250 0.062500 0.000000 
0.062500 0.062500 0.000000 
0.089773 0.089773 0.000000 
0.117045 0.117045 0.000000 
0.103835 0.152273 0.000000 
0.090625 0.187500 0.000000 
0.045312 0.187500 0.000000 
0.000000 0.187500 0.000000 
0.000000 0.125000 0.000000 
0.000000 0.187500 0.000000 
0.045312 0.187500 0.000000 
0.090625 0.187500 0.000000 
0.104366 0.242463 0.000000 
0.118107 0.297426 0.000000 
0.114647 0.304963 0.000000 
0.111187 0.312500 0.000000 
0.055593 0.312500 0.000000 
0.000000 0.312500 0.000000 
0.000000 0.250000 0.000000 
0.000000 0.312500 0.000000 
0.055593 0.312500 0.000000 
0.111187 0.312500 0.000000 
0.113546 0.341292 0.000000 
0.115906 0.370084 0.000000 
0.111703 0.381292 0.000000 
0.107500 0.392500 0.000000 
0.085000 0.415000 0.000000 
0.062500 0.437500 0.000000 
0.031250 0.437500 0.000000 
0.000000 0.437500 0.000000 
0.000000 0.375000 0.000000 
0.000000 0.437500 0.000000 
0.031250 0.437500 0.000000 
0.062500 0.437500 0.000000 
0.062500 0.462500 0.000000 
0.062500 0.487500 0.000000 
0.031250 0.518750 0.000000 
0.000000 0.550000 0.000000 
0.000000 0.493750 0.000000 
0.000000 0.570833 0.000000 
0.021930 0.585454 0.000000 
0.043860 0.600074 0.000000 
0.021930 0.622004 0.000000 
0.000000 0.643934 0.000000 
0.000000 0.607384 0.000000 
0.000000 0.695277 0.000000 
0.039283 0.702290 0.000000 
0.078566 0.709302 0.000000 
0.077647 0.716287 0.000000 
0.076728 0.723272 0.000000 
0.038364 0.761636 0.000000 
0.000000 0.800000 0.000000 
0.000000 0.747639 0.000000 
0.000000 0.820833 0.000000 
0.053750 0.856667 0.000000 
0.107500 0.892500 0.000000 
0.085000 0.915000 0.000000 
0.062500 0.937500 0.000000 
0.031250 0.937500 0.000000 
0.000000 0.937500 0.000000 
0.000000 0.879166 0.000000 
0.000000 0.937500 0.000000 
0.031250 0.937500 0.000000 
0.062500 0.937500 0.000000 
0.062500 0.968750 0.000000 
0.062500 1.000000 0.000000 
0.031250 1.000000 0.000000 
0.000000 1.000000 0.000000 
0.000000 0.968750 0.000000 
0.062500 0.000000 0.000000 
0.125000 0.000000 0.000000 
0.187500 0.000000 0.000000 
0.187500 0.045312 0.000000 
0.187500 0.090625 0.000000 
0.152273 0.103835 0.000000 
0.117045 0.117045 0.000000 
0.089773 0.089773 0.000000 
0.062500 0.062500 0.000000 
0.062500 0.031250 0.000000 
0.117045 0.117045 0.000000 
0.152273 0.103835 0.000000 
0.187500 0.090625 0.000000 
0.242463 0.104366 0.000000 
0.297426 0.118107 0.000000 
0.282542 0.192882 0.000000 
0.267657 0.267657 0.000000 
0.192882 0.282542 0.000000 
0.118107 0.297426 0.000000 
0.104366 0.242463 0.000000 
0.090625 0.187500 0.000000 
0.103835 0.152273 0.000000 
0.111187 0.312500 0.000000 
0.114647 0.304963 0.000000 
0.118107 0.297426 0.000000 
0.192882 0.282542 0.000000 
0.267657 0.267657 0.000000 
0.298044 0.298044 0.000000 
0.328432 0.328432 0.000000 
0.318720 0.365778 0.000000 
0.309008 0.403124 0.000000 
0.299853 0.412279 0.000000 
0.290698 0.421434 0.000000 
0.283713 0.422353 0.000000 
0.276728 0.423272 0.000000 
0.196317 0.396678 0.000000 
0.115906 0.370084 0.000000 
0.113546 0.341292 0.000000 
0.107500 0.392500 0.000000 
0.111703 0.381292 0.000000 
0.115906 0.370084 0.000000 
0.196317 0.396678 0.000000 
0.276728 0.423272 0.000000 
0.236360 0.463640 0.000000 
0.195992 0.504008 0.000000 
0.180533 0.491434 0.000000 
0.165074 0.478860 0.000000 
0.136287 0.435680 0.000000 
0.062500 0.437500 0.000000 
0.085000 0.415000 0.000000 
0.107500 0.392500 0.000000 
0.136287 0.435680 0.000000 
0.165074 0.478860 0.000000 
0.132574 0.511360 0.000000 
0.100074 0.543860 0.000000 
0.081287 0.515680 0.000000 
0.062500 0.487500 0.000000 
0.062500 0.462500 0.000000 
0.000000 0.550000 0.000000 
0.031250 0.518750 0.000000 
0.062500 0.487500 0.000000 
0.081287 0.515680 0.000000 
0.100074 0.543860 0.000000 
0.100828 0.546140 0.000000 
0.101581 0.548419 0.000000 
0.075000 0.575000 0.000000 
0.048419 0.601581 0.000000 
0.046140 0.600828 0.000000 
0.043860 0.600074 0.000000 
0.021930 0.585454 0.000000 
0.000000 0.570833 0.000000 
0.000000 0.560417 0.000000 
0.000000 0.643934 0.000000 
0.021930 0.622004 0.000000 
0.043860 0.600074 0.000000 
0.046140 0.600828 0.000000 
0.048419 0.601581 0.000000 
0.072647 0.646286 0.000000 
0.096876 0.690992 0.000000 
0.087721 0.700147 0.000000 
0.078566 0.709302 0.000000 
0.039283 0.702290 0.000000 
0.000000 0.695277 0.000000 
0.000000 0.669606 0.000000 
0.000000 0.820833 0.000000 
0.000000 0.810417 0.000000 
0.000000 0.800000 0.000000 
0.038364 0.761636 0.000000 
0.076728 0.723272 0.000000 
0.103322 0.803683 0.000000 
0.129916 0.884094 0.000000 
0.118708 0.888297 0.000000 
0.107500 0.892500 0.000000 
0.053750 0.856667 0.000000 
0.107500 0.892500 0.000000 
0.118708 0.888297 0.000000 
0.129916 0.884094 0.000000 
0.158708 0.886454 0.000000 
0.187500 0.888813 0.000000 
0.187500 0.944406 0.000000 
0.187500 1.000000 0.000000 
0.125000 1.000000 0.000000 
0.062500 1.000000 0.000000 
0.062500 0.968750 0.000000 
0.062500 0.937500 0.000000 
0.085000 0.915000 0.000000 
0.187500 0.000000 0.000000 
0.250000 0.000000 0.000000 
0.312500 0.000000 0.000000 
0.312500 0.055593 0.000000 
0.312500 0.111187 0.000000 
0.304963 0.114647 0.000000 
0.297426 0.118107 0.000000 
0.242463 0.104366 0.000000 
0.187500 0.090625 0.000000 
0.187500 0.045312 0.000000 
0.297426 0.118107 0.000000 
0.304963 0.114647 0.000000 
0.312500 0.111187 0.000000 
0.341292 0.113546 0.000000 
0.370084 0.115906 0.000000 
0.396678 0.196317 0.000000 
0.423272 0.276728 0.000000 
0.422353 0.283713 0.000000 
0.421434 0.290698 0.000000 
0.412279 0.299853 0.000000 
0.403124 0.309008 0.000000 
0.365778 0.318720 0.000000 
0.328432 0.328432 0.000000 
0.298044 0.298044 0.000000 
0.267657 0.267657 0.000000 
0.282542 0.192882 0.000000 
0.328432 0.328432 0.000000 
0.365778 0.318720 0.000000 
0.403124 0.309008 0.000000 
0.427353 0.353714 0.000000 
0.451581 0.398419 0.000000 
0.425000 0.425000 0.000000 
0.398419 0.451581 0.000000 
0.353714 0.427353 0.000000 
0.309008 0.403124 0.000000 
0.318720 0.365778 0.000000 
0.290698 0.421434 0.000000 
0.299853 0.412279 0.000000 
0.309008 0.403124 0.000000 
0.353714 0.427353 0.000000 
0.398419 0.451581 0.000000 
0.399173 0.453861 0.000000 
0.399926 0.456140 0.000000 
0.367426 0.488640 0.000000 
0.334926 0.521140 0.000000 
0.319467 0.508566 0.000000 
0.304008 0.495992 0.000000 
0.297353 0.458713 0.000000 
0.276728 0.423272 0.000000 
0.283713 0.422353 0.000000 
0.290698 0.421434 0.000000 
0.297353 0.458713 0.000000 
0.304008 0.495992 0.000000 
0.263640 0.536360 0.000000 
0.223272 0.576728 0.000000 
0.216287 0.577647 0.000000 
0.209302 0.578566 0.000000 
0.202647 0.541287 0.000000 
0.195992 0.504008 0.000000 
0.236360 0.463640 0.000000 
0.165074 0.478860 0.000000 
0.180533 0.491434 0.000000 
0.195992 0.504008 0.000000 
0.202647 0.541287 0.000000 
0.209302 0.578566 0.000000 
0.200147 0.587721 0.000000 
0.190992 0.596876 0.000000 
0.146286 0.572647 0.000000 
0.101581 0.548419 0.000000 
0.100828 0.546140 0.000000 
0.100074 0.543860 0.000000 
0.132574 0.511360 0.000000 
0.048419 0.601581 0.000000 
0.075000 0.575000 0.000000 
0.101581 0.548419 0.000000 
0.146286 0.572647 0.000000 
0.190992 0.596876 0.000000 
0.181280 0.634222 0.000000 
0.171568 0.671568 0.000000 
0.134222 0.681280 0.000000 
0.096876 0.690992 0.000000 
0.072647 0.646286 0.000000 
0.076728 0.723272 0.000000 
0.077647 0.716287 0.000000 
0.078566 0.709302 0.000000 
0.087721 0.700147 0.000000 
0.096876 0.690992 0.000000 
0.134222 0.681280 0.000000 
0.171568 0.671568 0.000000 
0.201956 0.701955 0.000000 
0.232343 0.732343 0.000000 
0.217459 0.807118 0.000000 
0.202574 0.881893 0.000000 
0.195037 0.885353 0.000000 
0.187500 0.888813 0.000000 
0.158708 0.886454 0.000000 
0.129916 0.884094 0.000000 
0.103322 0.803683 0.000000 
0.187500 0.888813 0.000000 
0.195037 0.885353 0.000000 
0.202574 0.881893 0.000000 
0.257537 0.895634 0.000000 
0.312500 0.909375 0.000000 
0.312500 0.954688 0.000000 
0.312500 1.000000 0.000000 
0.250000 1.000000 0.000000 
0.187500 1.000000 0.000000 
0.187500 0.944406 0.000000 
0.312500 0.000000 0.000000 
0.375000 0.000000 0.000000 
0.437500 0.000000 0.000000 
0.437500 0.031250 0.000000 
0.437500 0.062500 0.000000 
0.415000 0.085000 0.000000 
0.392500 0.107500 0.000000 
0.381292 0.111703 0.000000 
0.370084 0.115906 0.000000 
0.341292 0.113546 0.000000 
0.312500 0.111187 0.000000 
0.312500 0.055593 0.000000 
0.370084 0.115906 0.000000 
0.381292 0.111703 0.000000 
0.392500 0.107500 0.000000 
0.435680 0.136287 0.000000 
0.478860 0.165074 0.000000 
0.491434 0.180533 0.000000 
0.504008 0.195992 0.000000 
0.463640 0.236360 0.000000 
0.423272 0.276728 0.000000 
0.396678 0.196317 0.000000 
0.403124 0.309008 0.000000 
0.412279 0.299853 0.000000 
0.421434 0.290698 0.000000 
0.458713 0.297353 0.000000 
0.495992 0.304008 0.000000 
0.508566 0.319467 0.000000 
0.521140 0.334926 0.000000 
0.488640 0.367426 0.000000 
0.456140 0.399926 0.000000 
0.453861 0.399173 0.000000 
0.451581 0.398419 0.000000 
0.427353 0.353714 0.000000 
0.451581 0.398419 0.000000 
0.453861 0.399173 0.000000 
0.456140 0.399926 0.000000 
0.484320 0.418713 0.000000 
0.512500 0.437500 0.000000 
0.475000 0.475000 0.000000 
0.437500 0.512500 0.000000 
0.418713 0.484320 0.000000 
0.399926 0.456140 0.000000 
0.399173 0.453861 0.000000 
0.398419 0.451581 0.000000 
0.425000 0.425000 0.000000 
0.334926 0.521140 0.000000 
0.367426 0.488640 0.000000 
0.399926 0.456140 0.000000 
0.418713 0.484320 0.000000 
0.437500 0.512500 0.000000 
0.437500 0.537500 0.000000 
0.437500 0.562500 0.000000 
0.415000 0.585000 0.000000 
0.392500 0.607500 0.000000 
0.363713 0.564320 0.000000 
0.304008 0.495992 0.000000 
0.319467 0.508566 0.000000 
0.334926 0.521140 0.000000 
0.363713 0.564320 0.000000 
0.392500 0.607500 0.000000 
[...]
CELL_DATA 81
FIELD FieldData 1
material 1 81 int
1
1
1
1
1
1
1
1
1
1
1
1
1
1
1
1
1
1
1
1
1
1
1
1
1
1
1
1
1
1
1
1
1
1
1
1
1
1
1
1
1
1
1
1
1
1
1
1
1
1
1
1
1
1
1
1
1
1
1
1
1
1
1
1
1
1
1
1
1
1
1
1
1
1
1
1
1
1
1
1
1
POINT_DATA 880 SCALARS flux_g1 double 
LOOKUP_TABLE   default 
6.28417461e+00
6.48240717e+00
6.70294864e+00
6.91264240e+00
7.14699669e+00
6.91264240e+00
6.70294864e+00
6.48240717e+00
6.70293353e+00
6.91152387e+00
7.14714791e+00
7.55306696e+00
8.01685298e+00
8.20301387e+00
8.41490723e+00
8.02461421e+00
7.68490023e+00
7.15420665e+00
7.68497070e+00
8.02504252e+00
8.41464177e+00
9.03755483e+00
9.76274351e+00
9.80806889e+00
9.85932729e+00
9.32314309e+00
8.86326933e+00
8.23338694e+00
8.86297562e+00
9.32364367e+00
9.85907642e+00
1.01946185e+01
1.05559419e+01
1.06430548e+01
1.07353034e+01
1.07738434e+01
1.08288133e+01
1.05204472e+01
1.02370865e+01
9.50983718e+00
1.02370315e+01
1.05205166e+01
1.08284507e+01
1.11316668e+01
1.14522273e+01
1.15353559e+01
1.16420311e+01
1.09073187e+01
1.19189682e+01
1.23332560e+01
1.27716837e+01
1.28487906e+01
1.29362021e+01
1.24139160e+01
1.36911495e+01
1.42158705e+01
1.47868762e+01
1.48849529e+01
1.49851803e+01
1.51429211e+01
1.53336932e+01
1.44843107e+01
1.56769241e+01
1.68881365e+01
1.82502956e+01
1.83609921e+01
1.84860426e+01
1.80786400e+01
1.76984458e+01
1.66530200e+01
1.76984585e+01
1.80795108e+01
1.84858992e+01
1.90615227e+01
1.96616078e+01
1.92450288e+01
1.88505404e+01
1.82634587e+01
6.70293353e+00
7.15420665e+00
7.68490023e+00
8.02461421e+00
8.41490723e+00
8.20301387e+00
8.01685298e+00
7.55306696e+00
7.14714791e+00
6.91152387e+00
8.01627059e+00
8.20352501e+00
8.41423450e+00
9.03816714e+00
9.76215131e+00
1.03223305e+01
1.10002054e+01
1.03223305e+01
9.76215131e+00
9.03816714e+00
8.41423450e+00
8.20352501e+00
9.85883791e+00
9.81033869e+00
9.76182602e+00
1.03229265e+01
1.09999828e+01
1.16888285e+01
1.24467787e+01
1.27913874e+01
1.31648423e+01
1.31698821e+01
1.31779550e+01
1.31019120e+01
1.30278362e+01
1.16728002e+01
1.05553170e+01
1.01957886e+01
1.07341133e+01
1.06437196e+01
1.05552822e+01
1.16734228e+01
1.30277566e+01
1.30650126e+01
1.31420225e+01
1.27836621e+01
1.24406385e+01
1.15384656e+01
1.08282952e+01
1.07747075e+01
1.07344187e+01
1.15382031e+01
1.24407752e+01
1.25050028e+01
1.25958188e+01
1.20032394e+01
1.14517958e+01
1.11322633e+01
1.16419540e+01
1.15359762e+01
1.14518646e+01
1.20033075e+01
1.25957847e+01
1.26355271e+01
1.26750792e+01
1.27497890e+01
1.28415404e+01
1.28066787e+01
1.27720534e+01
1.23331303e+01
1.19191144e+01
1.17786404e+01
1.29364693e+01
1.28483973e+01
1.27720258e+01
1.28064981e+01
1.28416760e+01
1.37328398e+01
1.47163705e+01
1.47503973e+01
1.47866164e+01
1.42170873e+01
1.36911221e+01
1.33053775e+01
1.56769430e+01
1.55029424e+01
1.53339231e+01
1.51427782e+01
1.49851650e+01
1.65747041e+01
1.83972502e+01
1.83230737e+01
1.82500698e+01
1.68890548e+01
1.82510472e+01
1.83222617e+01
1.83976001e+01
1.88272569e+01
1.92816811e+01
2.03183765e+01
2.14291402e+01
2.05048700e+01
1.96617641e+01
1.90605400e+01
1.84863760e+01
1.83607210e+01
7.68497070e+00
8.23338694e+00
8.86326933e+00
9.32314309e+00
9.85932729e+00
9.80806889e+00
9.76274351e+00
9.03755483e+00
8.41464177e+00
8.02504252e+00
9.76182602e+00
9.81033869e+00
9.85883791e+00
1.01957886e+01
1.05553170e+01
1.16728002e+01
1.30278362e+01
1.31019120e+01
1.31779550e+01
1.31698821e+01
1.31648423e+01
1.27913874e+01
1.24467787e+01
1.16888285e+01
1.09999828e+01
1.03229265e+01
1.24465034e+01
1.27914796e+01
1.31648272e+01
1.40544929e+01
1.50357236e+01
1.50268288e+01
1.50357236e+01
1.40544929e+01
1.31648272e+01
1.27914796e+01
1.31779402e+01
1.31701904e+01
1.31648122e+01
1.40543642e+01
1.50357933e+01
1.50795759e+01
1.51232414e+01
1.51350479e+01
1.51729790e+01
1.47724209e+01
1.43868015e+01
1.37610041e+01
1.30278734e+01
1.31023760e+01
1.31778987e+01
1.37610791e+01
1.43867704e+01
1.44352535e+01
1.45251403e+01
1.44501391e+01
1.43761495e+01
1.37381248e+01
1.31420832e+01
1.30646761e+01
1.24405820e+01
1.27834878e+01
1.31423151e+01
1.37382297e+01
1.43761031e+01
1.43971373e+01
1.44201909e+01
1.35021995e+01
1.26749620e+01
1.26356266e+01
1.25958212e+01
1.25044037e+01
1.28415772e+01
1.27499319e+01
1.26752441e+01
1.35015299e+01
1.44201491e+01
1.48589254e+01
1.53267096e+01
1.50069096e+01
1.47161341e+01
1.37330936e+01
1.49853214e+01
1.48850602e+01
1.47865953e+01
1.47499558e+01
1.47159396e+01
1.50070884e+01
1.53268103e+01
1.61915837e+01
1.71254575e+01
1.81877421e+01
1.93677430e+01
1.93245976e+01
1.92816688e+01
1.88281142e+01
1.83973032e+01
1.65740903e+01
1.92818918e+01
1.93222219e+01
1.93685319e+01
2.04128355e+01
2.15596566e+01
2.24511174e+01
2.33926510e+01
2.23704893e+01
2.14294743e+01
2.03179560e+01
8.86297562e+00
9.50983718e+00
1.02370865e+01
1.05204472e+01
1.08288133e+01
1.07738434e+01
1.07353034e+01
1.06430548e+01
1.05559419e+01
1.01946185e+01
9.85907642e+00
9.32364367e+00
1.05552822e+01
1.06437196e+01
1.07341133e+01
1.15384656e+01
1.24406385e+01
1.27836621e+01
1.31420225e+01
1.30650126e+01
1.30277566e+01
1.16734228e+01
1.31648122e+01
1.31701904e+01
1.31779402e+01
1.37610041e+01
1.43868015e+01
1.47724209e+01
1.51729790e+01
1.51350479e+01
1.51232414e+01
1.50795759e+01
1.50357933e+01
1.40543642e+01
1.50358885e+01
1.50795061e+01
1.51233005e+01
1.57988637e+01
1.65166909e+01
1.64985987e+01
1.65166909e+01
1.57988637e+01
1.51233005e+01
1.50795061e+01
1.50358885e+01
1.50265208e+01
1.51730083e+01
1.51351107e+01
1.51232873e+01
1.57988676e+01
1.65166537e+01
1.69034462e+01
1.73060160e+01
1.73238186e+01
1.73543417e+01
1.62141188e+01
1.43867833e+01
1.47724283e+01
1.51730008e+01
1.62141667e+01
1.73543349e+01
1.74748040e+01
1.75976736e+01
1.59446946e+01
1.45250523e+01
1.44351923e+01
1.44200664e+01
1.43968573e+01
1.43758461e+01
1.44499422e+01
1.45250156e+01
1.59447624e+01
1.75976147e+01
1.81112217e+01
1.86478929e+01
1.87251354e+01
1.88034766e+01
1.79052371e+01
1.71255131e+01
1.61917421e+01
1.53268314e+01
1.48590923e+01
1.71254046e+01
1.79056435e+01
1.88034613e+01
1.99793335e+01
2.12543521e+01
2.17078422e+01
2.21850251e+01
2.18605927e+01
2.15594193e+01
2.04135540e+01
1.93680087e+01
1.81873234e+01
2.15598698e+01
2.18598465e+01
2.21856210e+01
2.31785780e+01
2.42296502e+01
2.48780988e+01
2.55523098e+01
2.44319694e+01
2.33925471e+01
2.24507609e+01
1.02370315e+01
1.09073187e+01
1.16420311e+01
1.15353559e+01
1.14522273e+01
1.11316668e+01
1.08284507e+01
1.05205166e+01
1.08282952e+01
1.11322633e+01
1.14517958e+01
1.20032394e+01
1.25958188e+01
1.25050028e+01
1.24407752e+01
1.15382031e+01
1.07344187e+01
1.07747075e+01
1.31420832e+01
1.37381248e+01
1.43761495e+01
1.44501391e+01
1.45251403e+01
1.44352535e+01
1.43867704e+01
1.37610791e+01
1.31778987e+01
1.31023760e+01
1.30278734e+01
1.30646761e+01
1.51232873e+01
1.51351107e+01
1.51730083e+01
1.62141188e+01
1.73543417e+01
1.73238186e+01
1.73060160e+01
1.69034462e+01
1.65166537e+01
1.57988676e+01
1.65167211e+01
1.69034289e+01
1.73059916e+01
1.82631143e+01
1.93188530e+01
1.82631143e+01
1.73059916e+01
1.69034289e+01
1.65167211e+01
1.64986164e+01
1.73543647e+01
1.73236501e+01
1.73060034e+01
1.82631513e+01
1.93188588e+01
2.02400292e+01
2.12170413e+01
2.16117547e+01
2.20297975e+01
2.02114379e+01
1.86479795e+01
1.81114751e+01
1.75976076e+01
1.74747457e+01
1.88036800e+01
1.87253236e+01
1.86479578e+01
2.02114636e+01
2.20298329e+01
2.33013826e+01
2.46728071e+01
2.47590194e+01
2.48463545e+01
2.29228937e+01
2.12545115e+01
1.99793154e+01
2.12546569e+01
2.29227196e+01
2.48463969e+01
2.54770741e+01
2.61305487e+01
2.62850642e+01
2.64421307e+01
2.64826531e+01
2.65360685e+01
2.53338894e+01
2.42289661e+01
2.31792640e+01
2.21852087e+01
2.17077890e+01
2.42291214e+01
2.53337255e+01
2.65360146e+01
2.72093514e+01
2.79085537e+01
2.66905497e+01
2.55523592e+01
2.48781262e+01
1.19189682e+01
1.24139160e+01
1.29362021e+01
1.28487906e+01
1.27716837e+01
1.23332560e+01
1.16419540e+01
1.17786404e+01
1.19191144e+01
1.23331303e+01
1.27720534e+01
1.28066787e+01
1.28415404e+01
1.27497890e+01
1.26750792e+01
1.26355271e+01
1.25957847e+01
1.20033075e+01
1.14518646e+01
1.15359762e+01
1.25958212e+01
1.26356266e+01
1.26749620e+01
1.35021995e+01
1.44201909e+01
1.43971373e+01
1.43761031e+01
1.37382297e+01
1.31423151e+01
1.27834878e+01
1.24405820e+01
1.25044037e+01
1.43867833e+01
1.44351923e+01
1.45250523e+01
1.59446946e+01
1.75976736e+01
1.74748040e+01
1.73543349e+01
1.62141667e+01
1.51730008e+01
1.47724283e+01
1.73060034e+01
1.73236501e+01
1.73543647e+01
1.74747457e+01
1.75976076e+01
1.81114751e+01
1.86479795e+01
2.02114379e+01
2.20297975e+01
2.16117547e+01
2.12170413e+01
2.02400292e+01
1.93188588e+01
1.82631513e+01
2.12170849e+01
2.16115819e+01
2.20299445e+01
2.33013812e+01
2.46729544e+01
2.57977491e+01
2.70401519e+01
2.57977491e+01
2.46729544e+01
2.33013812e+01
2.20299445e+01
2.16115819e+01
2.48464149e+01
2.47594147e+01
2.46728691e+01
2.57978182e+01
2.70401358e+01
2.83020632e+01
2.96328370e+01
3.02374260e+01
3.08709560e+01
3.08761947e+01
3.08839309e+01
3.07508431e+01
3.06195983e+01
2.82588078e+01
2.61305353e+01
2.54772317e+01
2.64417780e+01
2.62854104e+01
2.61304887e+01
2.82588454e+01
3.06194815e+01
3.06564114e+01
3.07271017e+01
3.05033637e+01
3.02848638e+01
2.82884849e+01
2.65365560e+01
2.64822430e+01
2.64419152e+01
2.82875316e+01
3.02847372e+01
2.90613049e+01
2.79085532e+01
2.72093973e+01
1.36911495e+01
1.44843107e+01
1.53336932e+01
1.51429211e+01
1.49851803e+01
1.48849529e+01
1.47868762e+01
1.42158705e+01
1.27720258e+01
1.28483973e+01
1.29364693e+01
1.33053775e+01
1.36911221e+01
1.42170873e+01
1.47866164e+01
1.47503973e+01
1.47163705e+01
1.37328398e+01
1.28416760e+01
1.28064981e+01
1.26752441e+01
1.27499319e+01
1.28415772e+01
1.37330936e+01
1.47161341e+01
1.50069096e+01
1.53267096e+01
1.48589254e+01
1.44201491e+01
1.35015299e+01
1.45250156e+01
1.44499422e+01
1.43758461e+01
1.43968573e+01
1.44200664e+01
1.48590923e+01
1.53268314e+01
1.61917421e+01
1.71255131e+01
1.79052371e+01
1.88034766e+01
1.87251354e+01
1.86478929e+01
1.81112217e+01
1.75976147e+01
1.59447624e+01
1.86479578e+01
1.87253236e+01
1.88036800e+01
1.99793154e+01
2.12545115e+01
2.29228937e+01
2.48463545e+01
2.47590194e+01
2.46728071e+01
2.33013826e+01
2.20298329e+01
2.02114636e+01
2.46728691e+01
2.47594147e+01
2.48464149e+01
2.54772317e+01
2.61305353e+01
2.82588078e+01
3.06195983e+01
3.07508431e+01
3.08839309e+01
3.08761947e+01
3.08709560e+01
3.02374260e+01
2.96328370e+01
2.83020632e+01
2.70401358e+01
2.57978182e+01
2.96326559e+01
3.02373528e+01
3.08712195e+01
3.24107162e+01
3.40414079e+01
3.40326480e+01
3.40414079e+01
3.24107162e+01
3.08712195e+01
3.02373528e+01
3.08841995e+01
3.08767168e+01
3.08713850e+01
3.24105911e+01
3.40415025e+01
3.41134714e+01
3.41860158e+01
3.41938389e+01
3.42131374e+01
3.36144740e+01
3.30326001e+01
3.19365113e+01
3.06195001e+01
3.07508528e+01
3.08844269e+01
3.19353595e+01
3.30325915e+01
3.18519052e+01
3.07268510e+01
3.06564380e+01
1.56769241e+01
1.66530200e+01
1.76984458e+01
1.80786400e+01
1.84860426e+01
1.83609921e+01
1.82502956e+01
1.68881365e+01
1.53339231e+01
1.55029424e+01
1.56769430e+01
1.68890548e+01
1.82500698e+01
1.83230737e+01
1.83972502e+01
1.65747041e+01
1.49851650e+01
1.51427782e+01
1.47159396e+01
1.47499558e+01
1.47865953e+01
1.48850602e+01
1.49853214e+01
1.65740903e+01
1.83973032e+01
1.88281142e+01
1.92816688e+01
1.93245976e+01
1.93677430e+01
1.81877421e+01
1.71254575e+01
1.61915837e+01
1.53268103e+01
1.50070884e+01
1.71254046e+01
1.81873234e+01
1.93680087e+01
2.04135540e+01
2.15594193e+01
2.18605927e+01
2.21850251e+01
2.17078422e+01
2.12543521e+01
1.99793335e+01
1.88034613e+01
1.79056435e+01
2.12546569e+01
2.17077890e+01
2.21852087e+01
2.31792640e+01
2.42289661e+01
2.53338894e+01
2.65360685e+01
2.64826531e+01
2.64421307e+01
2.62850642e+01
2.61305487e+01
2.54770741e+01
2.48463969e+01
2.29227196e+01
2.61304887e+01
2.62854104e+01
2.64417780e+01
2.82884849e+01
3.02848638e+01
3.05033637e+01
3.07271017e+01
3.06564114e+01
3.06194815e+01
2.82588454e+01
3.08713850e+01
3.08767168e+01
3.08841995e+01
3.19365113e+01
3.30326001e+01
3.36144740e+01
3.42131374e+01
3.41938389e+01
3.41860158e+01
3.41134714e+01
3.40415025e+01
3.24105911e+01
3.40409261e+01
3.41135983e+01
3.41859571e+01
3.50568179e+01
3.59514104e+01
3.62034052e+01
3.64591490e+01
3.64517152e+01
3.64591490e+01
3.62034052e+01
3.59514104e+01
3.50568179e+01
3.41859571e+01
3.41135983e+01
3.40409261e+01
3.40324765e+01
3.41858193e+01
3.50566471e+01
3.59513956e+01
3.50689625e+01
3.42129745e+01
3.41942857e+01
1.76984585e+01
1.82634587e+01
1.88505404e+01
1.92450288e+01
1.96616078e+01
1.90615227e+01
1.84858992e+01
1.80795108e+01
1.82510472e+01
1.83607210e+01
1.84863760e+01
1.90605400e+01
1.96617641e+01
2.05048700e+01
2.14291402e+01
2.03183765e+01
1.92816811e+01
1.88272569e+01
1.83976001e+01
1.83222617e+01
1.93685319e+01
1.93222219e+01
1.92818918e+01
2.03179560e+01
2.14294743e+01
2.23704893e+01
2.33926510e+01
2.24511174e+01
2.15596566e+01
2.04128355e+01
2.15598698e+01
2.24507609e+01
2.33925471e+01
2.44319694e+01
2.55523098e+01
2.48780988e+01
2.42296502e+01
2.31785780e+01
2.21856210e+01
2.18598465e+01
2.42291214e+01
2.48781262e+01
2.55523592e+01
2.66905497e+01
2.79085537e+01
2.72093514e+01
2.65360146e+01
2.53337255e+01
2.65365560e+01
2.72093973e+01
2.79085532e+01
2.90613049e+01
3.02847372e+01
2.82875316e+01
2.64419152e+01
2.64822430e+01
3.07268510e+01
3.18519052e+01
3.30325915e+01
3.19353595e+01
3.08844269e+01
3.07508528e+01
3.06195001e+01
3.06564380e+01
3.42129745e+01
3.50689625e+01
3.59513956e+01
3.50566471e+01
3.41858193e+01
3.41942857e+01
3.64590078e+01
3.70727811e+01
3.76995312e+01
3.70727811e+01
3.64590078e+01
3.64517088e+01
 
