# vtk DataFile Version 3.0 
Date: 3/21/2016   Time: 14:1
ASCII 
DATASET UNSTRUCTURED_GRID 
 
POINTS 896 float 
0.929928 0.000000 0.000000 
0.964964 0.000000 0.000000 
1.000000 0.000000 0.000000 
1.000000 0.037936 0.000000 
1.000000 0.075873 0.000000 
0.984088 0.075873 0.000000 
0.968175 0.075873 0.000000 
0.949051 0.037936 0.000000 
0.784284 0.000000 0.000000 
0.831217 0.000000 0.000000 
0.878150 0.000000 0.000000 
0.857031 0.025243 0.000000 
0.835913 0.050486 0.000000 
0.810099 0.047531 0.000000 
0.784284 0.044576 0.000000 
0.784284 0.022288 0.000000 
0.723686 0.000000 0.000000 
0.753985 0.000000 0.000000 
0.784284 0.000000 0.000000 
0.784284 0.022288 0.000000 
0.784284 0.044576 0.000000 
0.753985 0.064166 0.000000 
0.723686 0.083757 0.000000 
0.723686 0.041878 0.000000 
0.689151 0.000000 0.000000 
0.706419 0.000000 0.000000 
0.723686 0.000000 0.000000 
0.723686 0.041878 0.000000 
0.723686 0.083757 0.000000 
0.718729 0.089429 0.000000 
0.713772 0.095101 0.000000 
0.701461 0.092792 0.000000 
0.689151 0.090482 0.000000 
0.689151 0.045241 0.000000 
0.614296 0.000000 0.000000 
0.651723 0.000000 0.000000 
0.689151 0.000000 0.000000 
0.689151 0.045241 0.000000 
0.689151 0.090482 0.000000 
0.651723 0.087890 0.000000 
0.614296 0.085298 0.000000 
0.614296 0.042649 0.000000 
0.424986 0.029193 0.000000 
0.424986 0.014597 0.000000 
0.424986 0.000000 0.000000 
0.519641 0.000000 0.000000 
0.614296 0.000000 0.000000 
0.614296 0.042649 0.000000 
0.614296 0.085298 0.000000 
0.580392 0.107350 0.000000 
0.546489 0.129401 0.000000 
0.522694 0.128201 0.000000 
0.498899 0.127000 0.000000 
0.473919 0.112687 0.000000 
0.448939 0.098373 0.000000 
0.436962 0.063783 0.000000 
0.207535 0.000000 0.000000 
0.316261 0.000000 0.000000 
0.424986 0.000000 0.000000 
0.424986 0.014597 0.000000 
0.424986 0.029193 0.000000 
0.316261 0.040535 0.000000 
0.207535 0.051876 0.000000 
0.207535 0.025938 0.000000 
0.057556 0.000000 0.000000 
0.132545 0.000000 0.000000 
0.207535 0.000000 0.000000 
0.207535 0.025938 0.000000 
0.207535 0.051876 0.000000 
0.200985 0.067049 0.000000 
0.194434 0.082222 0.000000 
0.154334 0.098403 0.000000 
0.114234 0.114583 0.000000 
0.085895 0.088183 0.000000 
0.057556 0.061784 0.000000 
0.057556 0.030892 0.000000 
0.000000 0.000000 0.000000 
0.028778 0.000000 0.000000 
0.057556 0.000000 0.000000 
0.057556 0.030892 0.000000 
0.057556 0.061784 0.000000 
0.028778 0.061784 0.000000 
0.000000 0.061784 0.000000 
0.000000 0.030892 0.000000 
0.968175 0.075873 0.000000 
0.984088 0.075873 0.000000 
1.000000 0.075873 0.000000 
1.000000 0.125996 0.000000 
1.000000 0.176120 0.000000 
0.989860 0.176120 0.000000 
0.979719 0.176120 0.000000 
0.951790 0.151947 0.000000 
0.923860 0.127774 0.000000 
0.946017 0.101823 0.000000 
0.835913 0.050486 0.000000 
0.857031 0.025243 0.000000 
0.878150 0.000000 0.000000 
0.904039 0.000000 0.000000 
0.929928 0.000000 0.000000 
0.949051 0.037936 0.000000 
0.968175 0.075873 0.000000 
0.946017 0.101823 0.000000 
0.923860 0.127774 0.000000 
0.921152 0.129101 0.000000 
0.918443 0.130429 0.000000 
0.896570 0.128495 0.000000 
0.874697 0.126561 0.000000 
0.855305 0.088524 0.000000 
0.713772 0.095101 0.000000 
0.718729 0.089429 0.000000 
0.723686 0.083757 0.000000 
0.753985 0.064166 0.000000 
0.784284 0.044576 0.000000 
0.810099 0.047531 0.000000 
0.835913 0.050486 0.000000 
0.855305 0.088524 0.000000 
0.874697 0.126561 0.000000 
0.828969 0.156128 0.000000 
0.783241 0.185694 0.000000 
0.775277 0.187101 0.000000 
0.767313 0.188508 0.000000 
0.740542 0.141805 0.000000 
0.546489 0.129401 0.000000 
0.580392 0.107350 0.000000 
0.614296 0.085298 0.000000 
0.651723 0.087890 0.000000 
0.689151 0.090482 0.000000 
0.701461 0.092792 0.000000 
0.713772 0.095101 0.000000 
0.740542 0.141805 0.000000 
0.767313 0.188508 0.000000 
0.754760 0.214973 0.000000 
0.742207 0.241438 0.000000 
0.683159 0.248227 0.000000 
0.624110 0.255015 0.000000 
0.585300 0.192208 0.000000 
0.416045 0.121458 0.000000 
0.432492 0.109916 0.000000 
0.448939 0.098373 0.000000 
0.473919 0.112687 0.000000 
0.498899 0.127000 0.000000 
0.482727 0.211961 0.000000 
0.466556 0.296921 0.000000 
0.442392 0.299429 0.000000 
0.418227 0.301937 0.000000 
0.398193 0.279512 0.000000 
0.378158 0.257086 0.000000 
0.374512 0.242197 0.000000 
0.370865 0.227308 0.000000 
0.393455 0.174383 0.000000 
0.265790 0.154449 0.000000 
0.340917 0.137954 0.000000 
0.416045 0.121458 0.000000 
0.393455 0.174383 0.000000 
0.370865 0.227308 0.000000 
0.366778 0.227372 0.000000 
0.362691 0.227435 0.000000 
0.313629 0.210486 0.000000 
0.264567 0.193538 0.000000 
0.265178 0.173994 0.000000 
0.194434 0.082222 0.000000 
0.200985 0.067049 0.000000 
0.207535 0.051876 0.000000 
0.316261 0.040535 0.000000 
0.424986 0.029193 0.000000 
0.436962 0.063783 0.000000 
0.448939 0.098373 0.000000 
0.432492 0.109916 0.000000 
0.416045 0.121458 0.000000 
0.340917 0.137954 0.000000 
0.265790 0.154449 0.000000 
0.230112 0.118336 0.000000 
0.103073 0.144340 0.000000 
0.108654 0.129462 0.000000 
0.114234 0.114583 0.000000 
0.154334 0.098403 0.000000 
0.194434 0.082222 0.000000 
0.230112 0.118336 0.000000 
0.265790 0.154449 0.000000 
0.265178 0.173994 0.000000 
0.264567 0.193538 0.000000 
0.264269 0.194659 0.000000 
0.263972 0.195779 0.000000 
0.237941 0.220941 0.000000 
0.211910 0.246103 0.000000 
0.157492 0.195221 0.000000 
0.000000 0.061784 0.000000 
0.028778 0.061784 0.000000 
0.057556 0.061784 0.000000 
0.085895 0.088183 0.000000 
0.114234 0.114583 0.000000 
0.108654 0.129462 0.000000 
0.103073 0.144340 0.000000 
0.101594 0.146541 0.000000 
0.100115 0.148741 0.000000 
0.084033 0.163508 0.000000 
0.067950 0.178275 0.000000 
0.033975 0.178275 0.000000 
0.000000 0.178275 0.000000 
0.000000 0.120029 0.000000 
0.979719 0.176120 0.000000 
0.989860 0.176120 0.000000 
1.000000 0.176120 0.000000 
1.000000 0.198622 0.000000 
1.000000 0.221123 0.000000 
0.989422 0.221123 0.000000 
0.978845 0.221123 0.000000 
0.979282 0.198622 0.000000 
0.918443 0.130429 0.000000 
0.921152 0.129101 0.000000 
0.923860 0.127774 0.000000 
0.951790 0.151947 0.000000 
0.979719 0.176120 0.000000 
0.979282 0.198622 0.000000 
0.978845 0.221123 0.000000 
0.950647 0.248937 0.000000 
0.922450 0.276752 0.000000 
0.919152 0.270273 0.000000 
0.915853 0.263794 0.000000 
0.917148 0.197112 0.000000 
0.874697 0.126561 0.000000 
0.896570 0.128495 0.000000 
0.918443 0.130429 0.000000 
0.917148 0.197112 0.000000 
0.915853 0.263794 0.000000 
0.849547 0.224744 0.000000 
0.783241 0.185694 0.000000 
0.828969 0.156128 0.000000 
0.498899 0.127000 0.000000 
0.522694 0.128201 0.000000 
0.546489 0.129401 0.000000 
0.585300 0.192208 0.000000 
0.624110 0.255015 0.000000 
0.619752 0.265350 0.000000 
0.615393 0.275685 0.000000 
0.590810 0.298381 0.000000 
0.566227 0.321077 0.000000 
0.541070 0.333402 0.000000 
0.515912 0.345728 0.000000 
0.491234 0.321325 0.000000 
0.466556 0.296921 0.000000 
0.482727 0.211961 0.000000 
0.339391 0.275229 0.000000 
0.358775 0.266157 0.000000 
0.378158 0.257086 0.000000 
0.398193 0.279512 0.000000 
0.418227 0.301937 0.000000 
0.415196 0.304977 0.000000 
0.412164 0.308017 0.000000 
0.378618 0.316097 0.000000 
0.345072 0.324176 0.000000 
0.338097 0.316369 0.000000 
0.331122 0.308561 0.000000 
0.335257 0.291895 0.000000 
0.362691 0.227435 0.000000 
0.366778 0.227372 0.000000 
0.370865 0.227308 0.000000 
0.374512 0.242197 0.000000 
0.378158 0.257086 0.000000 
0.358775 0.266157 0.000000 
0.339391 0.275229 0.000000 
0.320759 0.265505 0.000000 
0.302126 0.255781 0.000000 
0.332409 0.241608 0.000000 
0.263972 0.195779 0.000000 
0.264269 0.194659 0.000000 
0.264567 0.193538 0.000000 
0.313629 0.210486 0.000000 
0.362691 0.227435 0.000000 
0.332409 0.241608 0.000000 
0.302126 0.255781 0.000000 
0.299287 0.255582 0.000000 
0.296448 0.255382 0.000000 
0.280210 0.225581 0.000000 
0.100115 0.148741 0.000000 
0.101594 0.146541 0.000000 
0.103073 0.144340 0.000000 
0.157492 0.195221 0.000000 
0.211910 0.246103 0.000000 
0.205307 0.265844 0.000000 
0.198703 0.285585 0.000000 
0.188935 0.286973 0.000000 
0.179166 0.288361 0.000000 
0.167872 0.285839 0.000000 
0.156577 0.283316 0.000000 
0.128346 0.216029 0.000000 
0.000000 0.178275 0.000000 
0.033975 0.178275 0.000000 
0.067950 0.178275 0.000000 
0.063236 0.209435 0.000000 
0.058522 0.240595 0.000000 
0.056141 0.242735 0.000000 
0.053761 0.244875 0.000000 
0.026880 0.244875 0.000000 
0.000000 0.244875 0.000000 
0.000000 0.211575 0.000000 
0.978845 0.221123 0.000000 
0.989422 0.221123 0.000000 
1.000000 0.221123 0.000000 
1.000000 0.253869 0.000000 
1.000000 0.286616 0.000000 
0.961801 0.286616 0.000000 
0.923602 0.286616 0.000000 
0.923026 0.281684 0.000000 
0.922450 0.276752 0.000000 
0.950647 0.248937 0.000000 
0.742207 0.241438 0.000000 
0.754760 0.214973 0.000000 
0.767313 0.188508 0.000000 
0.775277 0.187101 0.000000 
0.783241 0.185694 0.000000 
0.849547 0.224744 0.000000 
0.915853 0.263794 0.000000 
0.919152 0.270273 0.000000 
0.922450 0.276752 0.000000 
0.923026 0.281684 0.000000 
0.923602 0.286616 0.000000 
0.913052 0.310580 0.000000 
0.902501 0.334543 0.000000 
0.828742 0.304854 0.000000 
0.754983 0.275164 0.000000 
0.748595 0.258301 0.000000 
0.615393 0.275685 0.000000 
0.619752 0.265350 0.000000 
0.624110 0.255015 0.000000 
0.683159 0.248227 0.000000 
0.742207 0.241438 0.000000 
0.748595 0.258301 0.000000 
0.754983 0.275164 0.000000 
0.743775 0.332577 0.000000 
0.732568 0.389991 0.000000 
0.707460 0.385982 0.000000 
0.682352 0.381973 0.000000 
0.648872 0.328829 0.000000 
0.345072 0.324176 0.000000 
0.378618 0.316097 0.000000 
0.412164 0.308017 0.000000 
0.390651 0.383691 0.000000 
0.369138 0.459365 0.000000 
0.347834 0.443018 0.000000 
0.326529 0.426671 0.000000 
0.322047 0.409265 0.000000 
0.317564 0.391859 0.000000 
0.331318 0.358017 0.000000 
0.255086 0.321925 0.000000 
0.269067 0.310554 0.000000 
0.283048 0.299183 0.000000 
0.307085 0.303872 0.000000 
0.331122 0.308561 0.000000 
0.338097 0.316369 0.000000 
0.345072 0.324176 0.000000 
0.331318 0.358017 0.000000 
0.317564 0.391859 0.000000 
[...]
CELL_DATA 81
FIELD FieldData 1
material 1 81 int
1
1
1
1
1
1
1
1
1
1
1
1
1
1
1
1
1
1
1
1
1
1
1
1
1
1
1
1
1
1
1
1
1
1
1
1
1
1
1
1
1
1
1
1
1
1
1
1
1
1
1
1
1
1
1
1
1
1
1
1
1
1
1
1
1
1
1
1
1
1
1
1
1
1
1
1
1
1
1
1
1
POINT_DATA 896 SCALARS flux_g1 double 
LOOKUP_TABLE   default 
1.75620611e+01
1.81938396e+01
1.88510409e+01
1.93311114e+01
1.98414979e+01
1.95338958e+01
1.92338092e+01
1.83656852e+01
1.50789716e+01
1.58425382e+01
1.66491723e+01
1.65823080e+01
1.65288385e+01
1.60514144e+01
1.55928831e+01
1.53286028e+01
1.41229588e+01
1.45910208e+01
1.50789114e+01
1.53293217e+01
1.55928452e+01
1.53256172e+01
1.50766084e+01
1.45783845e+01
1.35991211e+01
1.38574084e+01
1.41229677e+01
1.45787093e+01
1.50765757e+01
1.50649674e+01
1.50547520e+01
1.48318466e+01
1.46138960e+01
1.40814458e+01
1.25161135e+01
1.30411187e+01
1.35992445e+01
1.40807169e+01
1.46140186e+01
1.40025818e+01
1.34312022e+01
1.29530116e+01
1.03646608e+01
1.02275862e+01
1.00921470e+01
1.12130769e+01
1.25162948e+01
1.29505666e+01
1.34318764e+01
1.31847941e+01
1.29646030e+01
1.26160904e+01
1.22867298e+01
1.17956869e+01
1.13346429e+01
1.08299833e+01
7.86118516e+00
8.86287895e+00
1.00922322e+01
1.02236012e+01
1.03628936e+01
9.19908887e+00
8.27624030e+00
8.06082320e+00
6.66682944e+00
7.20877172e+00
7.86108029e+00
8.06289783e+00
8.27954826e+00
8.34116704e+00
8.41054678e+00
8.17767956e+00
7.97368492e+00
7.51107759e+00
7.10623271e+00
6.87514985e+00
6.28427329e+00
6.46610040e+00
6.66780984e+00
6.87578749e+00
7.10627397e+00
6.89187758e+00
6.69828399e+00
6.47979973e+00
1.92337252e+01
1.95340033e+01
1.98408458e+01
2.05267820e+01
2.12603995e+01
2.10583415e+01
2.08592969e+01
1.99552639e+01
1.91019510e+01
1.91601312e+01
1.65287549e+01
1.65825386e+01
1.66490494e+01
1.70973697e+01
1.75622173e+01
1.83660158e+01
1.92335801e+01
1.91604859e+01
1.91019908e+01
1.90693485e+01
1.90373762e+01
1.86030691e+01
1.81827973e+01
1.73233092e+01
1.50547483e+01
1.50652661e+01
1.50765587e+01
1.53263653e+01
1.55924242e+01
1.60519313e+01
1.65284221e+01
1.73237836e+01
1.81824952e+01
1.77517312e+01
1.73615048e+01
1.72425047e+01
1.71261777e+01
1.60378677e+01
1.29629151e+01
1.31859412e+01
1.34310040e+01
1.40029649e+01
1.46138425e+01
1.48321202e+01
1.50548843e+01
1.60380403e+01
1.71261095e+01
1.72673111e+01
1.74221699e+01
1.65066169e+01
1.56699223e+01
1.42166522e+01
1.11659642e+01
1.12476858e+01
1.13348497e+01
1.17963643e+01
1.22863364e+01
1.30047590e+01
1.38790229e+01
1.35736598e+01
1.32802766e+01
1.27262345e+01
1.22055171e+01
1.19822086e+01
1.17667527e+01
1.14389143e+01
9.78317424e+00
1.04166397e+01
1.11661341e+01
1.14403500e+01
1.17668946e+01
1.17173388e+01
1.16682206e+01
1.08746919e+01
1.01657115e+01
9.96999057e+00
8.41098206e+00
8.34385005e+00
8.27522683e+00
9.19738009e+00
1.03629910e+01
1.08269823e+01
1.13368001e+01
1.12457402e+01
1.11664448e+01
1.04166807e+01
9.78337903e+00
9.04780400e+00
8.13431861e+00
8.05280859e+00
7.97360173e+00
8.17747702e+00
8.41112530e+00
9.04817592e+00
9.78375960e+00
9.96947145e+00
1.01657624e+01
1.01736502e+01
1.01827563e+01
1.01626495e+01
1.01584840e+01
9.04248421e+00
6.69840720e+00
6.89241294e+00
7.10605281e+00
7.51166015e+00
7.97381242e+00
8.05211324e+00
8.13650259e+00
8.14056488e+00
8.14892534e+00
8.14093945e+00
8.14129522e+00
7.85854329e+00
7.60643727e+00
7.11837276e+00
2.08592604e+01
2.10588394e+01
2.12605664e+01
2.15938032e+01
2.19381909e+01
2.17241979e+01
2.15133999e+01
2.11798776e+01
1.90375764e+01
1.90701384e+01
1.91021722e+01
1.99551618e+01
2.08592291e+01
2.11798444e+01
2.15135259e+01
2.13728273e+01
2.12537381e+01
2.10879714e+01
2.09244704e+01
1.99264897e+01
1.81826168e+01
1.86036863e+01
1.90375912e+01
1.99264952e+01
2.09247286e+01
1.90364837e+01
1.73613913e+01
1.77518707e+01
1.22865475e+01
1.26171315e+01
1.29630425e+01
1.42170164e+01
1.56700364e+01
1.57407764e+01
1.58123623e+01
1.57340313e+01
1.56691622e+01
1.54521030e+01
1.52466184e+01
1.45397478e+01
1.38792087e+01
1.30044346e+01
1.19385454e+01
1.20677329e+01
1.22054104e+01
1.27261973e+01
1.32801736e+01
1.32789936e+01
1.32765187e+01
1.29293920e+01
1.26053871e+01
1.24191174e+01
1.22376333e+01
1.20841792e+01
1.16681751e+01
1.17176541e+01
1.17668791e+01
1.19821518e+01
1.22053712e+01
1.20681502e+01
1.19381395e+01
1.15945509e+01
1.12662499e+01
1.14591782e+01
1.01825800e+01
1.01741528e+01
1.01657909e+01
1.08745837e+01
1.16681953e+01
1.14591872e+01
1.12662317e+01
1.12308239e+01
1.11954522e+01
1.06688647e+01
8.14783353e+00
8.14142187e+00
8.13449506e+00
9.04196635e+00
1.01585699e+01
1.03008796e+01
1.04508740e+01
1.03624758e+01
1.02767025e+01
1.01311595e+01
9.99017952e+00
8.97716959e+00
7.60590775e+00
7.85977285e+00
8.14075274e+00
8.38064743e+00
8.64116655e+00
8.64073894e+00
8.64237111e+00
8.41301692e+00
8.20197930e+00
7.89217349e+00
2.15134622e+01
2.17239391e+01
2.19382955e+01
2.24425993e+01
2.29700227e+01
2.21822418e+01
2.14306421e+01
2.13415604e+01
2.12535266e+01
2.13735687e+01
1.74226855e+01
1.72674440e+01
1.71258232e+01
1.72429849e+01
1.73613799e+01
1.90363403e+01
2.09247559e+01
2.10884618e+01
2.12536811e+01
2.13418551e+01
2.14304259e+01
2.15992844e+01
2.17786940e+01
1.98437676e+01
1.81238993e+01
1.77676934e+01
1.58124362e+01
1.57403036e+01
1.56702192e+01
1.65059622e+01
1.74224845e+01
1.77674499e+01
1.81236750e+01
1.87597941e+01
1.94660185e+01
1.89530919e+01
1.84583507e+01
1.70632927e+01
1.26054566e+01
1.29293614e+01
1.32766107e+01
1.39531199e+01
1.47443308e+01
1.42152245e+01
1.37120223e+01
1.34153830e+01
1.31275186e+01
1.28545406e+01
1.14919458e+01
1.15169357e+01
1.15460827e+01
1.18824475e+01
1.22375565e+01
1.24192164e+01
1.26053561e+01
1.28548595e+01
1.31274714e+01
1.22674559e+01
1.11954529e+01
1.12308675e+01
1.12661807e+01
1.15945946e+01
1.19381630e+01
1.20848340e+01
1.22375122e+01
1.18825444e+01
1.15460405e+01
1.13655332e+01
1.01589824e+01
1.01624287e+01
1.01825038e+01
1.06686351e+01
1.11954085e+01
1.13658286e+01
1.15460738e+01
1.15170030e+01
1.14918659e+01
1.13601892e+01
1.12312843e+01
1.08299913e+01
1.04510213e+01
1.03010502e+01
8.14084741e+00
8.14113399e+00
8.14813082e+00
8.97694163e+00
9.99022476e+00
9.81451654e+00
9.65138257e+00
9.12018560e+00
8.64128088e+00
8.38033735e+00
8.20189937e+00
8.41362401e+00
8.64223149e+00
8.68022274e+00
8.72054655e+00
8.55695007e+00
8.40226991e+00
8.30065385e+00
2.14307300e+01
2.21817119e+01
2.29701186e+01
2.36776388e+01
2.44266540e+01
2.34214853e+01
2.24710383e+01
2.21188320e+01
2.17789299e+01
2.15985175e+01
1.81239641e+01
1.98438488e+01
2.17785351e+01
2.21203868e+01
2.24707405e+01
2.30381331e+01
2.36781879e+01
2.21973983e+01
2.08330948e+01
2.01332389e+01
1.94661201e+01
1.87595093e+01
1.56692743e+01
1.57338644e+01
1.58124715e+01
1.70631777e+01
1.84584703e+01
1.82405428e+01
1.80296113e+01
1.67934102e+01
1.32766403e+01
1.32785758e+01
1.32802985e+01
1.35736673e+01
1.38789433e+01
1.45399595e+01
1.52465465e+01
1.53463846e+01
1.54478269e+01
1.52136998e+01
1.50796669e+01
1.49104962e+01
1.47443811e+01
1.39533478e+01
1.12315345e+01
1.13602464e+01
1.14918600e+01
1.22674876e+01
1.31274440e+01
1.34149900e+01
1.37118968e+01
1.28894711e+01
1.21727206e+01
1.21146152e+01
1.20575980e+01
1.16175011e+01
1.02764946e+01
1.03633276e+01
1.04509874e+01
1.08304421e+01
1.12313449e+01
1.16179298e+01
1.20572341e+01
1.13798080e+01
1.07594698e+01
1.05067586e+01
9.65138011e+00
9.81436139e+00
9.99024531e+00
1.01311116e+01
1.02767400e+01
1.05065614e+01
1.07594514e+01
1.03549200e+01
9.98239594e+00
9.97341137e+00
9.96464304e+00
9.80305668e+00
8.86174175e+00
8.79008333e+00
8.72058772e+00
8.68052914e+00
8.64240622e+00
8.64160032e+00
8.64110189e+00
9.12012370e+00
9.65146386e+00
9.80329628e+00
9.96453954e+00
9.67579465e+00
9.40878233e+00
9.12705376e+00
8.40225027e+00
8.55696426e+00
8.72055029e+00
8.78985855e+00
8.86169015e+00
8.73503602e+00
8.61327575e+00
8.50632361e+00
2.24708834e+01
2.34212736e+01
2.44267675e+01
2.55027206e+01
2.66589055e+01
2.51278772e+01
2.37089146e+01
2.36912530e+01
2.36791701e+01
2.30371248e+01
1.80296425e+01
1.82407064e+01
1.84583367e+01
1.89532498e+01
1.94657199e+01
2.01335862e+01
2.08324582e+01
2.00604169e+01
1.93835771e+01
1.89956358e+01
1.86181027e+01
1.83400032e+01
1.80679139e+01
1.80373619e+01
1.54478215e+01
1.53463085e+01
1.52469057e+01
1.54516624e+01
1.56693669e+01
1.67933991e+01
1.80296926e+01
1.80373180e+01
1.80679424e+01
1.76711250e+01
1.72857237e+01
1.63298238e+01
1.54477489e+01
1.63296958e+01
1.72856722e+01
1.63858166e+01
1.56206394e+01
1.54143281e+01
1.52114001e+01
1.51454412e+01
1.50796986e+01
1.52137611e+01
1.21866168e+01
1.21795580e+01
1.21726743e+01
1.28896168e+01
1.37118556e+01
1.42144297e+01
1.47443380e+01
1.49109345e+01
1.50795144e+01
1.51448584e+01
1.52109376e+01
1.53264181e+01
1.54814302e+01
1.39526311e+01
1.26396426e+01
1.24096477e+01
1.30888706e+01
1.28515286e+01
1.26395720e+01
1.39524845e+01
1.54815189e+01
1.57482564e+01
1.60255602e+01
1.44346870e+01
9.98241027e+00
1.03552314e+01
1.07593541e+01
1.13800641e+01
1.20571337e+01
1.21150518e+01
1.21724292e+01
1.21803133e+01
1.21872912e+01
1.15714061e+01
1.10160804e+01
1.04757356e+01
9.37707474e+00
9.39158598e+00
9.40906207e+00
9.67567666e+00
9.96483762e+00
9.97379717e+00
9.98242701e+00
1.04754208e+01
1.10159366e+01
1.09916463e+01
1.09695274e+01
1.05452397e+01
1.01537787e+01
9.75265038e+00
8.61301711e+00
8.73465127e+00
8.86157542e+00
9.12735348e+00
9.40892638e+00
9.39132341e+00
9.37727115e+00
9.37504675e+00
9.37349519e+00
8.98077058e+00
2.37087360e+01
2.51252153e+01
2.66579797e+01
2.86862289e+01
3.09326887e+01
3.03850473e+01
2.98497238e+01
2.76387224e+01
2.56297222e+01
2.46202654e+01
1.93833922e+01
2.00605592e+01
2.08324447e+01
2.21990171e+01
2.36774085e+01
2.36930077e+01
2.37081864e+01
2.46218003e+01
2.56290380e+01
2.50314077e+01
2.45005956e+01
2.17494579e+01
1.72857281e+01
1.76706210e+01
1.80679999e+01
1.83395618e+01
1.86175520e+01
1.83716212e+01
1.81826171e+01
1.68351022e+01
1.56207573e+01
1.63857746e+01
1.54812758e+01
1.53263217e+01
1.52111431e+01
1.54139547e+01
1.56208320e+01
1.68352820e+01
1.81831695e+01
1.90472048e+01
1.99759776e+01
1.86873229e+01
1.75466562e+01
1.68358633e+01
1.61640881e+01
1.60951176e+01
1.60258271e+01
1.57486721e+01
1.59730084e+01
1.60419726e+01
1.61640573e+01
1.68362832e+01
1.75461476e+01
1.82241164e+01
1.89456939e+01
1.83572189e+01
1.78145488e+01
1.73018283e+01
1.68120343e+01
1.63841573e+01
1.30889190e+01
1.44348837e+01
1.60254872e+01
1.60942339e+01
1.61644135e+01
1.60415355e+01
1.59726304e+01
1.43568095e+01
1.29980985e+01
1.30193653e+01
1.09689909e+01
1.09924034e+01
1.10156355e+01
1.15717623e+01
1.21872151e+01
1.24083327e+01
1.26396017e+01
1.28512575e+01
1.30886889e+01
1.30188618e+01
1.29979439e+01
1.28090765e+01
1.26284917e+01
1.23893053e+01
1.21561367e+01
1.15062785e+01
1.05384781e+01
1.03364258e+01
1.01548348e+01
1.05437836e+01
1.09691792e+01
1.15053769e+01
1.21563933e+01
1.13069934e+01
9.37397809e+00
9.37478173e+00
9.37705919e+00
9.75353504e+00
1.01536350e+01
1.03407712e+01
1.05378854e+01
9.93107456e+00
2.98478595e+01
3.03851189e+01
3.09311455e+01
3.32301715e+01
3.57375619e+01
3.55316867e+01
3.53290477e+01
3.45467870e+01
3.37912303e+01
3.33612121e+01
3.29385317e+01
3.13088259e+01
2.45009475e+01
2.50331614e+01
2.56285211e+01
2.76419848e+01
2.98469771e+01
3.13044930e+01
3.29377175e+01
3.06947636e+01
2.87600781e+01
2.70209737e+01
2.54102181e+01
2.51974169e+01
2.49882817e+01
2.47015426e+01
1.81821816e+01
1.83725134e+01
1.86172516e+01
1.89944313e+01
1.93831912e+01
2.17500088e+01
2.45004783e+01
2.47036563e+01
2.49887769e+01
2.23083911e+01
1.99760831e+01
1.90474644e+01
1.89472510e+01
1.82220107e+01
1.75464675e+01
1.86873587e+01
1.99756457e+01
2.23109463e+01
2.49877645e+01
2.51982896e+01
2.54071073e+01
2.36108226e+01
2.20695329e+01
2.04299528e+01
1.78143567e+01
1.83573347e+01
1.89452428e+01
2.04316316e+01
2.20685250e+01
2.20204262e+01
2.19678709e+01
2.16107725e+01
2.12693752e+01
1.94430342e+01
1.74419692e+01
1.71197427e+01
1.68119825e+01
1.73011132e+01
1.78144281e+01
1.94434293e+01
2.12695071e+01
2.12608556e+01
2.12510177e+01
1.92156418e+01
1.75451081e+01
1.74772928e+01
1.74418669e+01
1.92153308e+01
2.12512051e+01
2.12055266e+01
2.11623907e+01
2.10697430e+01
2.09803096e+01
2.07394007e+01
2.05114614e+01
1.94292509e+01
1.84481217e+01
1.79895932e+01
1.26290176e+01
1.28088372e+01
1.29976403e+01
1.43567812e+01
1.59727019e+01
1.63839401e+01
1.68125413e+01
1.71190836e+01
1.74415537e+01
1.74762459e+01
1.75448313e+01
1.56765798e+01
1.40672562e+01
1.33184552e+01
1.40672525e+01
1.56767812e+01
1.75453597e+01
1.79896440e+01
1.84491041e+01
1.85013165e+01
1.85630737e+01
1.79746998e+01
1.74400123e+01
1.56564671e+01
3.53279858e+01
3.55320484e+01
3.57374481e+01
3.67035369e+01
3.76994806e+01
3.74864500e+01
3.72772953e+01
3.62836969e+01
3.37939781e+01
3.45482563e+01
3.53279281e+01
3.62839753e+01
3.72774620e+01
3.66201205e+01
3.59796906e+01
3.48629633e+01
2.87607890e+01
3.07011336e+01
3.29389773e+01
3.33542985e+01
3.37943269e+01
3.48538793e+01
3.59810931e+01
3.27647255e+01
2.98983884e+01
2.93266082e+01
2.19714628e+01
2.20092665e+01
2.20719548e+01
2.36097712e+01
2.54071978e+01
2.70236618e+01
2.87620627e+01
2.93353101e+01
2.98961176e+01
2.68733823e+01
2.42821045e+01
2.30843435e+01
2.11621730e+01
2.12053761e+01
2.12516547e+01
2.12601089e+01
2.12695894e+01
2.16126820e+01
2.19678391e+01
2.30922948e+01
2.42808951e+01
2.36217345e+01
2.29996770e+01
2.20553317e+01
2.09804939e+01
2.10696070e+01
2.11620281e+01
2.20560044e+01
2.29996711e+01
2.27905167e+01
2.25860176e+01
2.17637477e+01
2.05112691e+01
2.07393782e+01
2.09805303e+01
2.17635871e+01
2.25860495e+01
2.22021750e+01
2.18328124e+01
2.11576929e+01
1.85620654e+01
1.85032437e+01
1.84486433e+01
1.94295162e+01
2.05110546e+01
2.11564421e+01
2.18328534e+01
2.08843311e+01
2.00143229e+01
1.92669502e+01
1.74405634e+01
1.79788627e+01
1.85621354e+01
1.92682643e+01
2.00148612e+01
1.94128450e+01
1.88516674e+01
1.81284959e+01
 
