# vtk DataFile Version 3.0 
Date: 3/21/2016   Time: 14:1
ASCII 
DATASET UNSTRUCTURED_GRID 
 
POINTS 800 float 
0.000000 0.000000 0.000000 
0.050000 0.000000 0.000000 
0.100000 0.000000 0.000000 
0.100000 0.050000 0.000000 
0.100000 0.100000 0.000000 
0.050000 0.100000 0.000000 
0.000000 0.100000 0.000000 
0.000000 0.050000 0.000000 
0.100000 0.000000 0.000000 
0.150000 0.000000 0.000000 
0.200000 0.000000 0.000000 
0.200000 0.050000 0.000000 
0.200000 0.100000 0.000000 
0.150000 0.100000 0.000000 
0.100000 0.100000 0.000000 
0.100000 0.050000 0.000000 
0.200000 0.000000 0.000000 
0.250000 0.000000 0.000000 
0.300000 0.000000 0.000000 
0.300000 0.050000 0.000000 
0.300000 0.100000 0.000000 
0.250000 0.100000 0.000000 
0.200000 0.100000 0.000000 
0.200000 0.050000 0.000000 
0.300000 0.000000 0.000000 
0.350000 0.000000 0.000000 
0.400000 0.000000 0.000000 
0.400000 0.050000 0.000000 
0.400000 0.100000 0.000000 
0.350000 0.100000 0.000000 
0.300000 0.100000 0.000000 
0.300000 0.050000 0.000000 
0.400000 0.000000 0.000000 
0.450000 0.000000 0.000000 
0.500000 0.000000 0.000000 
0.500000 0.050000 0.000000 
0.500000 0.100000 0.000000 
0.450000 0.100000 0.000000 
0.400000 0.100000 0.000000 
0.400000 0.050000 0.000000 
0.500000 0.000000 0.000000 
0.550000 0.000000 0.000000 
0.600000 0.000000 0.000000 
0.600000 0.050000 0.000000 
0.600000 0.100000 0.000000 
0.550000 0.100000 0.000000 
0.500000 0.100000 0.000000 
0.500000 0.050000 0.000000 
0.600000 0.000000 0.000000 
0.650000 0.000000 0.000000 
0.700000 0.000000 0.000000 
0.700000 0.050000 0.000000 
0.700000 0.100000 0.000000 
0.650000 0.100000 0.000000 
0.600000 0.100000 0.000000 
0.600000 0.050000 0.000000 
0.700000 0.000000 0.000000 
0.750000 0.000000 0.000000 
0.800000 0.000000 0.000000 
0.800000 0.050000 0.000000 
0.800000 0.100000 0.000000 
0.750000 0.100000 0.000000 
0.700000 0.100000 0.000000 
0.700000 0.050000 0.000000 
0.800000 0.000000 0.000000 
0.850000 0.000000 0.000000 
0.900000 0.000000 0.000000 
0.900000 0.050000 0.000000 
0.900000 0.100000 0.000000 
0.850000 0.100000 0.000000 
0.800000 0.100000 0.000000 
0.800000 0.050000 0.000000 
0.900000 0.000000 0.000000 
0.950000 0.000000 0.000000 
1.000000 0.000000 0.000000 
1.000000 0.050000 0.000000 
1.000000 0.100000 0.000000 
0.950000 0.100000 0.000000 
0.900000 0.100000 0.000000 
0.900000 0.050000 0.000000 
0.000000 0.100000 0.000000 
0.050000 0.100000 0.000000 
0.100000 0.100000 0.000000 
0.100000 0.150000 0.000000 
0.100000 0.200000 0.000000 
0.050000 0.200000 0.000000 
0.000000 0.200000 0.000000 
0.000000 0.150000 0.000000 
0.100000 0.100000 0.000000 
0.150000 0.100000 0.000000 
0.200000 0.100000 0.000000 
0.200000 0.150000 0.000000 
0.200000 0.200000 0.000000 
0.150000 0.200000 0.000000 
0.100000 0.200000 0.000000 
0.100000 0.150000 0.000000 
0.200000 0.100000 0.000000 
0.250000 0.100000 0.000000 
0.300000 0.100000 0.000000 
0.300000 0.150000 0.000000 
0.300000 0.200000 0.000000 
0.250000 0.200000 0.000000 
0.200000 0.200000 0.000000 
0.200000 0.150000 0.000000 
0.300000 0.100000 0.000000 
0.350000 0.100000 0.000000 
0.400000 0.100000 0.000000 
0.400000 0.150000 0.000000 
0.400000 0.200000 0.000000 
0.350000 0.200000 0.000000 
0.300000 0.200000 0.000000 
0.300000 0.150000 0.000000 
0.400000 0.100000 0.000000 
0.450000 0.100000 0.000000 
0.500000 0.100000 0.000000 
0.500000 0.150000 0.000000 
0.500000 0.200000 0.000000 
0.450000 0.200000 0.000000 
0.400000 0.200000 0.000000 
0.400000 0.150000 0.000000 
0.500000 0.100000 0.000000 
0.550000 0.100000 0.000000 
0.600000 0.100000 0.000000 
0.600000 0.150000 0.000000 
0.600000 0.200000 0.000000 
0.550000 0.200000 0.000000 
0.500000 0.200000 0.000000 
0.500000 0.150000 0.000000 
0.600000 0.100000 0.000000 
0.650000 0.100000 0.000000 
0.700000 0.100000 0.000000 
0.700000 0.150000 0.000000 
0.700000 0.200000 0.000000 
0.650000 0.200000 0.000000 
0.600000 0.200000 0.000000 
0.600000 0.150000 0.000000 
0.700000 0.100000 0.000000 
0.750000 0.100000 0.000000 
0.800000 0.100000 0.000000 
0.800000 0.150000 0.000000 
0.800000 0.200000 0.000000 
0.750000 0.200000 0.000000 
0.700000 0.200000 0.000000 
0.700000 0.150000 0.000000 
0.800000 0.100000 0.000000 
0.850000 0.100000 0.000000 
0.900000 0.100000 0.000000 
0.900000 0.150000 0.000000 
0.900000 0.200000 0.000000 
0.850000 0.200000 0.000000 
0.800000 0.200000 0.000000 
0.800000 0.150000 0.000000 
0.900000 0.100000 0.000000 
0.950000 0.100000 0.000000 
1.000000 0.100000 0.000000 
1.000000 0.150000 0.000000 
1.000000 0.200000 0.000000 
0.950000 0.200000 0.000000 
0.900000 0.200000 0.000000 
0.900000 0.150000 0.000000 
0.000000 0.200000 0.000000 
0.050000 0.200000 0.000000 
0.100000 0.200000 0.000000 
0.100000 0.250000 0.000000 
0.100000 0.300000 0.000000 
0.050000 0.300000 0.000000 
0.000000 0.300000 0.000000 
0.000000 0.250000 0.000000 
0.100000 0.200000 0.000000 
0.150000 0.200000 0.000000 
0.200000 0.200000 0.000000 
0.200000 0.250000 0.000000 
0.200000 0.300000 0.000000 
0.150000 0.300000 0.000000 
0.100000 0.300000 0.000000 
0.100000 0.250000 0.000000 
0.200000 0.200000 0.000000 
0.250000 0.200000 0.000000 
0.300000 0.200000 0.000000 
0.300000 0.250000 0.000000 
0.300000 0.300000 0.000000 
0.250000 0.300000 0.000000 
0.200000 0.300000 0.000000 
0.200000 0.250000 0.000000 
0.300000 0.200000 0.000000 
0.350000 0.200000 0.000000 
0.400000 0.200000 0.000000 
0.400000 0.250000 0.000000 
0.400000 0.300000 0.000000 
0.350000 0.300000 0.000000 
0.300000 0.300000 0.000000 
0.300000 0.250000 0.000000 
0.400000 0.200000 0.000000 
0.450000 0.200000 0.000000 
0.500000 0.200000 0.000000 
0.500000 0.250000 0.000000 
0.500000 0.300000 0.000000 
0.450000 0.300000 0.000000 
0.400000 0.300000 0.000000 
0.400000 0.250000 0.000000 
0.500000 0.200000 0.000000 
0.550000 0.200000 0.000000 
0.600000 0.200000 0.000000 
0.600000 0.250000 0.000000 
0.600000 0.300000 0.000000 
0.550000 0.300000 0.000000 
0.500000 0.300000 0.000000 
0.500000 0.250000 0.000000 
0.600000 0.200000 0.000000 
0.650000 0.200000 0.000000 
0.700000 0.200000 0.000000 
0.700000 0.250000 0.000000 
0.700000 0.300000 0.000000 
0.650000 0.300000 0.000000 
0.600000 0.300000 0.000000 
0.600000 0.250000 0.000000 
0.700000 0.200000 0.000000 
0.750000 0.200000 0.000000 
0.800000 0.200000 0.000000 
0.800000 0.250000 0.000000 
0.800000 0.300000 0.000000 
0.750000 0.300000 0.000000 
0.700000 0.300000 0.000000 
0.700000 0.250000 0.000000 
0.800000 0.200000 0.000000 
0.850000 0.200000 0.000000 
0.900000 0.200000 0.000000 
0.900000 0.250000 0.000000 
0.900000 0.300000 0.000000 
0.850000 0.300000 0.000000 
0.800000 0.300000 0.000000 
0.800000 0.250000 0.000000 
0.900000 0.200000 0.000000 
0.950000 0.200000 0.000000 
1.000000 0.200000 0.000000 
1.000000 0.250000 0.000000 
1.000000 0.300000 0.000000 
0.950000 0.300000 0.000000 
0.900000 0.300000 0.000000 
0.900000 0.250000 0.000000 
0.000000 0.300000 0.000000 
0.050000 0.300000 0.000000 
0.100000 0.300000 0.000000 
0.100000 0.350000 0.000000 
0.100000 0.400000 0.000000 
0.050000 0.400000 0.000000 
0.000000 0.400000 0.000000 
0.000000 0.350000 0.000000 
0.100000 0.300000 0.000000 
0.150000 0.300000 0.000000 
0.200000 0.300000 0.000000 
0.200000 0.350000 0.000000 
0.200000 0.400000 0.000000 
0.150000 0.400000 0.000000 
0.100000 0.400000 0.000000 
0.100000 0.350000 0.000000 
0.200000 0.300000 0.000000 
0.250000 0.300000 0.000000 
0.300000 0.300000 0.000000 
0.300000 0.350000 0.000000 
0.300000 0.400000 0.000000 
0.250000 0.400000 0.000000 
0.200000 0.400000 0.000000 
0.200000 0.350000 0.000000 
0.300000 0.300000 0.000000 
0.350000 0.300000 0.000000 
0.400000 0.300000 0.000000 
0.400000 0.350000 0.000000 
0.400000 0.400000 0.000000 
0.350000 0.400000 0.000000 
0.300000 0.400000 0.000000 
0.300000 0.350000 0.000000 
0.400000 0.300000 0.000000 
0.450000 0.300000 0.000000 
0.500000 0.300000 0.000000 
0.500000 0.350000 0.000000 
0.500000 0.400000 0.000000 
0.450000 0.400000 0.000000 
0.400000 0.400000 0.000000 
0.400000 0.350000 0.000000 
0.500000 0.300000 0.000000 
0.550000 0.300000 0.000000 
0.600000 0.300000 0.000000 
0.600000 0.350000 0.000000 
0.600000 0.400000 0.000000 
0.550000 0.400000 0.000000 
0.500000 0.400000 0.000000 
0.500000 0.350000 0.000000 
0.600000 0.300000 0.000000 
0.650000 0.300000 0.000000 
0.700000 0.300000 0.000000 
0.700000 0.350000 0.000000 
0.700000 0.400000 0.000000 
0.650000 0.400000 0.000000 
0.600000 0.400000 0.000000 
0.600000 0.350000 0.000000 
0.700000 0.300000 0.000000 
0.750000 0.300000 0.000000 
0.800000 0.300000 0.000000 
0.800000 0.350000 0.000000 
0.800000 0.400000 0.000000 
0.750000 0.400000 0.000000 
0.700000 0.400000 0.000000 
0.700000 0.350000 0.000000 
0.800000 0.300000 0.000000 
0.850000 0.300000 0.000000 
0.900000 0.300000 0.000000 
0.900000 0.350000 0.000000 
0.900000 0.400000 0.000000 
0.850000 0.400000 0.000000 
0.800000 0.400000 0.000000 
0.800000 0.350000 0.000000 
0.900000 0.300000 0.000000 
0.950000 0.300000 0.000000 
1.000000 0.300000 0.000000 
1.000000 0.350000 0.000000 
1.000000 0.400000 0.000000 
0.950000 0.400000 0.000000 
0.900000 0.400000 0.000000 
0.900000 0.350000 0.000000 
0.000000 0.400000 0.000000 
0.050000 0.400000 0.000000 
0.100000 0.400000 0.000000 
0.100000 0.450000 0.000000 
0.100000 0.500000 0.000000 
0.050000 0.500000 0.000000 
0.000000 0.500000 0.000000 
0.000000 0.450000 0.000000 
0.100000 0.400000 0.000000 
0.150000 0.400000 0.000000 
0.200000 0.400000 0.000000 
0.200000 0.450000 0.000000 
0.200000 0.500000 0.000000 
0.150000 0.500000 0.000000 
0.100000 0.500000 0.000000 
0.100000 0.450000 0.000000 
0.200000 0.400000 0.000000 
0.250000 0.400000 0.000000 
0.300000 0.400000 0.000000 
0.300000 0.450000 0.000000 
0.300000 0.500000 0.000000 
0.250000 0.500000 0.000000 
0.200000 0.500000 0.000000 
0.200000 0.450000 0.000000 
0.300000 0.400000 0.000000 
0.350000 0.400000 0.000000 
0.400000 0.400000 0.000000 
0.400000 0.450000 0.000000 
0.400000 0.500000 0.000000 
0.350000 0.500000 0.000000 
0.300000 0.500000 0.000000 
0.300000 0.450000 0.000000 
0.400000 0.400000 0.000000 
[...]
CELL_DATA 100
FIELD FieldData 1
material 1 100 int
1
1
1
1
1
1
1
1
1
1
1
1
1
1
1
1
1
1
1
1
1
1
1
1
1
1
1
1
1
1
1
1
1
1
1
1
1
1
1
1
1
1
1
1
1
1
1
1
1
1
1
1
1
1
1
1
1
1
1
1
1
1
1
1
1
1
1
1
1
1
1
1
1
1
1
1
1
1
1
1
1
1
1
1
1
1
1
1
1
1
1
1
1
1
1
1
1
1
1
1
POINT_DATA 800 SCALARS flux_g1 double 
LOOKUP_TABLE   default 
6.28522481e+00
6.60374096e+00
6.97731979e+00
7.32226115e+00
7.73248785e+00
7.32226115e+00
6.97731979e+00
6.60374096e+00
6.97717576e+00
7.35821898e+00
7.79368872e+00
8.17079723e+00
8.61163694e+00
8.13956666e+00
7.73234485e+00
7.32253413e+00
7.79368973e+00
8.23768293e+00
8.73605768e+00
9.14464222e+00
9.61674153e+00
9.08172446e+00
8.61164115e+00
8.17077875e+00
8.73605123e+00
9.24292083e+00
9.80414850e+00
1.02441880e+01
1.07476380e+01
1.01497156e+01
9.61672722e+00
9.14466106e+00
9.80414974e+00
1.03738584e+01
1.09979420e+01
1.14693925e+01
1.20042737e+01
1.13435155e+01
1.07476399e+01
1.02441849e+01
1.09979420e+01
1.16304954e+01
1.23174239e+01
1.28202908e+01
1.33865777e+01
1.26629844e+01
1.20042737e+01
1.14693925e+01
1.23174226e+01
1.30128320e+01
1.37625995e+01
1.42968730e+01
1.48946029e+01
1.41081223e+01
1.33865758e+01
1.28202940e+01
1.37626059e+01
1.45208682e+01
1.53335121e+01
1.58990967e+01
1.65284546e+01
1.56790690e+01
1.48946172e+01
1.42968542e+01
1.53335111e+01
1.61546784e+01
1.70302723e+01
1.76269580e+01
1.82880962e+01
1.73758491e+01
1.65284504e+01
1.58991152e+01
1.70304163e+01
1.79134745e+01
1.88515954e+01
1.94842708e+01
2.01720089e+01
1.91974814e+01
1.82882392e+01
1.76266851e+01
6.97717576e+00
7.32253413e+00
7.73234485e+00
8.13956666e+00
8.61163694e+00
8.17079723e+00
7.79368872e+00
7.35821898e+00
7.73220030e+00
8.13978867e+00
8.61147569e+00
9.05090565e+00
9.55350552e+00
9.05090565e+00
8.61147569e+00
8.13978867e+00
8.61147582e+00
9.08199340e+00
9.61661659e+00
1.00876161e+01
1.06214142e+01
1.00558619e+01
9.55350395e+00
9.05086885e+00
9.61659993e+00
1.01499612e+01
1.07474878e+01
1.12499357e+01
1.18151855e+01
1.11867334e+01
1.06213972e+01
1.00876560e+01
1.07474940e+01
1.13437326e+01
1.20041187e+01
1.25379120e+01
1.31346597e+01
1.24433607e+01
1.18151952e+01
1.12499270e+01
1.20041187e+01
1.26632015e+01
1.33864318e+01
1.39516967e+01
1.45797967e+01
1.38256614e+01
1.31346597e+01
1.25379120e+01
1.33864256e+01
1.41083679e+01
1.48944756e+01
1.54911954e+01
1.61506003e+01
1.53336357e+01
1.45797870e+01
1.39517054e+01
1.48944922e+01
1.56793380e+01
1.65282893e+01
1.71561779e+01
1.78473086e+01
1.69673657e+01
1.61506172e+01
1.54911554e+01
1.65282892e+01
1.73760711e+01
1.82879516e+01
1.89468674e+01
1.96698818e+01
1.87270110e+01
1.78473101e+01
1.71562147e+01
1.82880962e+01
1.91977544e+01
2.01718649e+01
2.08670674e+01
2.16166964e+01
2.06115041e+01
1.96700431e+01
1.89466454e+01
7.79368973e+00
8.17077875e+00
8.61164115e+00
9.08172446e+00
9.61674153e+00
9.14464222e+00
8.73605768e+00
8.23768293e+00
8.61147582e+00
9.05086885e+00
9.55350395e+00
1.00558619e+01
1.06214142e+01
1.00876161e+01
9.61661659e+00
9.08199340e+00
9.55349447e+00
1.00558797e+01
1.06213975e+01
1.11554261e+01
1.17521815e+01
1.11554261e+01
1.06213975e+01
1.00558797e+01
1.06213888e+01
1.11867217e+01
1.18151788e+01
1.23805514e+01
1.30087593e+01
1.23490724e+01
1.17521765e+01
1.11554389e+01
1.18151849e+01
1.24433656e+01
1.31346467e+01
1.37314028e+01
1.43910645e+01
1.36685351e+01
1.30087629e+01
1.23805432e+01
1.31346467e+01
1.38256663e+01
1.45797864e+01
1.52079765e+01
1.58990282e+01
1.51136677e+01
1.43910645e+01
1.37314028e+01
1.45797804e+01
1.53336240e+01
1.61505918e+01
1.68103057e+01
1.75327070e+01
1.66844703e+01
1.58990245e+01
1.52079848e+01
1.61506006e+01
1.69673835e+01
1.78472991e+01
1.85381798e+01
1.92921932e+01
1.83810892e+01
1.75327120e+01
1.68102929e+01
1.78473086e+01
1.87269742e+01
1.96698820e+01
2.03917270e+01
2.11776776e+01
2.02035444e+01
1.92922099e+01
1.85381621e+01
1.96700473e+01
2.06114857e+01
2.16166974e+01
2.23748499e+01
2.31873839e+01
2.21508358e+01
2.11778025e+01
2.03914580e+01
8.73605123e+00
9.14466106e+00
9.61672722e+00
1.01497156e+01
1.07476380e+01
1.02441880e+01
9.80414850e+00
9.24292083e+00
9.61659993e+00
1.00876560e+01
1.06213972e+01
1.11867334e+01
1.18151855e+01
1.12499357e+01
1.07474878e+01
1.01499612e+01
1.06213888e+01
1.11554389e+01
1.17521765e+01
1.23490724e+01
1.30087593e+01
1.23805514e+01
1.18151788e+01
1.11867217e+01
1.17521663e+01
1.23490979e+01
1.30087478e+01
1.36370420e+01
1.43281490e+01
1.36370420e+01
1.30087478e+01
1.23490979e+01
1.30087532e+01
1.36685589e+01
1.43910576e+01
1.50507033e+01
1.57732565e+01
1.50192972e+01
1.43281559e+01
1.36370295e+01
1.43910576e+01
1.51136915e+01
1.58990185e+01
1.65901266e+01
1.73440849e+01
1.65272616e+01
1.57732565e+01
1.50507033e+01
1.58990130e+01
1.66844958e+01
1.75326967e+01
1.82552921e+01
1.90406057e+01
1.81609354e+01
1.73440780e+01
1.65901391e+01
1.75327070e+01
1.83811020e+01
1.92921845e+01
2.00460130e+01
2.08629657e+01
1.99203738e+01
1.90406172e+01
1.82552666e+01
1.92921929e+01
2.02035844e+01
2.11776609e+01
2.19623496e+01
2.28112036e+01
2.18056871e+01
2.08629723e+01
2.00460247e+01
2.11777882e+01
2.21508546e+01
2.31873774e+01
2.40084063e+01
2.48837932e+01
2.38158683e+01
2.28113537e+01
2.19621040e+01
9.80414974e+00
1.02441849e+01
1.07476399e+01
1.13435155e+01
1.20042737e+01
1.14693925e+01
1.09979420e+01
1.03738584e+01
1.07474940e+01
1.12499270e+01
1.18151952e+01
1.24433607e+01
1.31346597e+01
1.25379120e+01
1.20041187e+01
1.13437326e+01
1.18151849e+01
1.23805432e+01
1.30087629e+01
1.36685351e+01
1.43910645e+01
1.37314028e+01
1.31346467e+01
1.24433656e+01
1.30087532e+01
1.36370295e+01
1.43281559e+01
1.50192972e+01
1.57732565e+01
1.50507033e+01
1.43910576e+01
1.36685589e+01
1.43281629e+01
1.50192871e+01
1.57732630e+01
1.64957750e+01
1.72812026e+01
1.64957750e+01
1.57732630e+01
1.50192871e+01
1.57732630e+01
1.65272516e+01
1.73440918e+01
1.80980479e+01
1.89148556e+01
1.80665713e+01
1.72812026e+01
1.64957750e+01
1.73440849e+01
1.81609229e+01
1.90406111e+01
1.98260805e+01
2.06742429e+01
1.97630923e+01
1.89148492e+01
1.80980580e+01
1.90406208e+01
1.99203655e+01
2.08629717e+01
2.16796480e+01
2.25594247e+01
2.15853844e+01
2.06742498e+01
1.98260567e+01
2.08629820e+01
2.18056784e+01
2.28112098e+01
2.36587758e+01
2.45704893e+01
2.35334863e+01
2.25594376e+01
2.16796431e+01
2.28113557e+01
2.38158651e+01
2.48837945e+01
2.57676624e+01
2.67059053e+01
2.56065594e+01
2.45706443e+01
2.36585587e+01
1.09979420e+01
1.14693925e+01
1.20042737e+01
1.26629844e+01
1.33865777e+01
1.28202908e+01
1.23174239e+01
1.16304954e+01
1.20041187e+01
1.25379120e+01
1.31346597e+01
1.38256614e+01
1.45797967e+01
1.39516967e+01
1.33864318e+01
1.26632015e+01
1.31346467e+01
1.37314028e+01
1.43910645e+01
1.51136677e+01
1.58990282e+01
1.52079765e+01
1.45797864e+01
1.38256663e+01
1.43910576e+01
1.50507033e+01
1.57732565e+01
1.65272616e+01
1.73440849e+01
1.65901266e+01
1.58990185e+01
1.51136915e+01
1.57732630e+01
1.64957750e+01
1.72812026e+01
1.80665713e+01
1.89148556e+01
1.80980479e+01
1.73440918e+01
1.65272516e+01
1.72812026e+01
1.80665713e+01
1.89148556e+01
1.97316761e+01
2.06113482e+01
1.97316761e+01
1.89148556e+01
1.80665713e+01
1.89148492e+01
1.97630923e+01
2.06742429e+01
2.15225405e+01
2.24335312e+01
2.14910111e+01
2.06113413e+01
1.97316861e+01
2.06742498e+01
2.15853844e+01
2.25594247e+01
2.34389399e+01
2.43815555e+01
2.33761174e+01
2.24335409e+01
2.15225167e+01
2.25594376e+01
2.35334863e+01
2.45704893e+01
2.54808995e+01
2.64554572e+01
2.53870940e+01
2.43815658e+01
2.34389349e+01
2.45706443e+01
2.56065594e+01
2.67059053e+01
2.76526180e+01
2.86537057e+01
2.75229444e+01
2.64556031e+01
2.54806824e+01
1.23174226e+01
1.28202940e+01
1.33865758e+01
1.41081223e+01
1.48946029e+01
1.42968730e+01
1.37625995e+01
1.30128320e+01
1.33864256e+01
1.39517054e+01
1.45797870e+01
1.53336357e+01
1.61506003e+01
1.54911954e+01
1.48944756e+01
1.41083679e+01
1.45797804e+01
1.52079848e+01
1.58990245e+01
1.66844703e+01
1.75327070e+01
1.68103057e+01
1.61505918e+01
1.53336240e+01
1.58990130e+01
1.65901391e+01
1.73440780e+01
1.81609354e+01
1.90406057e+01
1.82552921e+01
1.75326967e+01
1.66844958e+01
1.73440849e+01
1.80980580e+01
1.89148492e+01
1.97630923e+01
2.06742429e+01
1.98260805e+01
1.90406111e+01
1.81609229e+01
1.89148492e+01
1.97316861e+01
2.06113413e+01
2.14910111e+01
2.24335312e+01
2.15225405e+01
2.06742429e+01
1.97630923e+01
2.06113343e+01
2.14910237e+01
2.24335257e+01
2.33446722e+01
2.43185369e+01
2.33446722e+01
2.24335257e+01
2.14910237e+01
2.24335373e+01
2.33761257e+01
2.43815494e+01
2.53238887e+01
2.63293520e+01
2.52926059e+01
2.43185471e+01
2.33446467e+01
2.43815561e+01
2.53871027e+01
2.64554511e+01
2.74287208e+01
2.84661559e+01
2.73664156e+01
2.63293605e+01
2.53239004e+01
2.64556012e+01
2.75229476e+01
2.86537044e+01
2.96632731e+01
3.07271998e+01
2.95650133e+01
2.84662831e+01
2.74284752e+01
1.37626059e+01
1.42968542e+01
1.48946172e+01
1.56790690e+01
1.65284546e+01
1.58990967e+01
1.53335121e+01
1.45208682e+01
1.48944922e+01
1.54911554e+01
1.61506172e+01
1.69673657e+01
1.78473086e+01
1.71561779e+01
1.65282893e+01
1.56793380e+01
1.61506006e+01
1.68102929e+01
1.75327120e+01
1.83810892e+01
1.92921932e+01
1.85381798e+01
1.78472991e+01
1.69673835e+01
1.75327070e+01
1.82552666e+01
1.90406172e+01
1.99203738e+01
2.08629657e+01
2.00460130e+01
1.92921845e+01
1.83811020e+01
1.90406208e+01
1.98260567e+01
2.06742498e+01
2.15853844e+01
2.25594247e+01
2.16796480e+01
2.08629717e+01
1.99203655e+01
2.06742498e+01
2.15225167e+01
2.24335409e+01
2.33761174e+01
2.43815555e+01
2.34389399e+01
2.25594247e+01
2.15853844e+01
2.24335373e+01
2.33446467e+01
2.43185471e+01
2.52926059e+01
2.63293520e+01
2.53238887e+01
2.43815494e+01
2.33761257e+01
2.43185522e+01
2.52925930e+01
2.63293608e+01
2.73346393e+01
2.84030504e+01
2.73346393e+01
2.63293608e+01
2.52925930e+01
2.63293774e+01
2.73663757e+01
2.84661725e+01
2.95023456e+01
3.06026244e+01
2.94712211e+01
2.84030599e+01
2.73346215e+01
2.84662974e+01
2.95649945e+01
3.07272063e+01
3.17996278e+01
3.29264310e+01
3.17327237e+01
3.06027897e+01
2.95020767e+01
1.53335111e+01
1.58991152e+01
1.65284504e+01
1.73758491e+01
1.82880962e+01
1.76269580e+01
1.70302723e+01
1.61546784e+01
1.65282892e+01
1.71562147e+01
1.78473101e+01
1.87270110e+01
1.96698818e+01
1.89468674e+01
1.82879516e+01
1.73760711e+01
1.78473086e+01
1.85381621e+01
1.92922099e+01
2.02035444e+01
2.11776776e+01
2.03917270e+01
1.96698820e+01
1.87269742e+01
1.92921929e+01
2.00460247e+01
2.08629723e+01
2.18056871e+01
2.28112036e+01
2.19623496e+01
2.11776609e+01
2.02035844e+01
2.08629820e+01
2.16796431e+01
2.25594376e+01
2.35334863e+01
2.45704893e+01
2.36587758e+01
2.28112098e+01
2.18056784e+01
2.25594376e+01
2.34389349e+01
2.43815658e+01
2.53870940e+01
2.64554572e+01
2.54808995e+01
2.45704893e+01
2.35334863e+01
2.43815561e+01
2.53239004e+01
2.63293605e+01
2.73664156e+01
2.84661559e+01
2.74287208e+01
2.64554511e+01
2.53871027e+01
2.63293774e+01
2.73346215e+01
2.84030599e+01
2.94712211e+01
3.06026244e+01
2.95023456e+01
2.84661725e+01
2.73663757e+01
2.84030614e+01
2.94712579e+01
3.06026243e+01
3.17017336e+01
3.28649415e+01
3.17017336e+01
3.06026243e+01
2.94712579e+01
3.06027855e+01
3.17327421e+01
3.29264299e+01
3.40617565e+01
3.52515096e+01
3.40260717e+01
3.28650861e+01
3.17015116e+01
1.70304163e+01
1.76266851e+01
1.82882392e+01
1.91974814e+01
2.01720089e+01
1.94842708e+01
1.88515954e+01
1.79134745e+01
1.82880962e+01
1.89466454e+01
1.96700431e+01
2.06115041e+01
2.16166964e+01
2.08670674e+01
2.01718649e+01
1.91977544e+01
1.96700473e+01
2.03914580e+01
2.11778025e+01
2.21508358e+01
2.31873839e+01
2.23748499e+01
2.16166974e+01
2.06114857e+01
2.11777882e+01
2.19621040e+01
2.28113537e+01
2.38158683e+01
2.48837932e+01
2.40084063e+01
2.31873774e+01
2.21508546e+01
2.28113557e+01
2.36585587e+01
2.45706443e+01
2.56065594e+01
2.67059053e+01
2.57676624e+01
2.48837945e+01
2.38158651e+01
2.45706443e+01
2.54806824e+01
2.64556031e+01
2.75229444e+01
2.86537057e+01
2.76526180e+01
2.67059053e+01
2.56065594e+01
2.64556012e+01
2.74284752e+01
2.84662831e+01
2.95650133e+01
3.07271998e+01
2.96632731e+01
2.86537044e+01
2.75229476e+01
2.84662974e+01
2.95020767e+01
3.06027897e+01
3.17327237e+01
3.29264310e+01
3.17996278e+01
3.07272063e+01
2.95649945e+01
3.06027855e+01
3.17015116e+01
3.28650861e+01
3.40260717e+01
3.52515096e+01
3.40617565e+01
3.29264299e+01
3.17327421e+01
3.28652291e+01
3.40257987e+01
3.52516537e+01
3.64488712e+01
3.77011513e+01
3.64488712e+01
3.52516537e+01
3.40257987e+01
 
