# vtk DataFile Version 3.0 
Date: 3/21/2016   Time: 14:2
ASCII 
DATASET UNSTRUCTURED_GRID 
 
POINTS 3200 float 
0.000000 0.000000 0.000000 
0.025000 0.000000 0.000000 
0.050000 0.000000 0.000000 
0.050000 0.010000 0.000000 
0.050000 0.020000 0.000000 
0.025000 0.020000 0.000000 
0.000000 0.020000 0.000000 
0.000000 0.010000 0.000000 
0.000000 0.020000 0.000000 
0.025000 0.020000 0.000000 
0.050000 0.020000 0.000000 
0.050000 0.030000 0.000000 
0.050000 0.040000 0.000000 
0.025000 0.040000 0.000000 
0.000000 0.040000 0.000000 
0.000000 0.030000 0.000000 
0.000000 0.040000 0.000000 
0.025000 0.040000 0.000000 
0.050000 0.040000 0.000000 
0.050000 0.050000 0.000000 
0.050000 0.060000 0.000000 
0.025000 0.060000 0.000000 
0.000000 0.060000 0.000000 
0.000000 0.050000 0.000000 
0.000000 0.060000 0.000000 
0.025000 0.060000 0.000000 
0.050000 0.060000 0.000000 
0.050000 0.070000 0.000000 
0.050000 0.080000 0.000000 
0.025000 0.080000 0.000000 
0.000000 0.080000 0.000000 
0.000000 0.070000 0.000000 
0.000000 0.080000 0.000000 
0.025000 0.080000 0.000000 
0.050000 0.080000 0.000000 
0.050000 0.090000 0.000000 
0.050000 0.100000 0.000000 
0.025000 0.100000 0.000000 
0.000000 0.100000 0.000000 
0.000000 0.090000 0.000000 
0.000000 0.100000 0.000000 
0.025000 0.100000 0.000000 
0.050000 0.100000 0.000000 
0.050000 0.110000 0.000000 
0.050000 0.120000 0.000000 
0.025000 0.120000 0.000000 
0.000000 0.120000 0.000000 
0.000000 0.110000 0.000000 
0.000000 0.120000 0.000000 
0.025000 0.120000 0.000000 
0.050000 0.120000 0.000000 
0.050000 0.130000 0.000000 
0.050000 0.140000 0.000000 
0.025000 0.140000 0.000000 
0.000000 0.140000 0.000000 
0.000000 0.130000 0.000000 
0.000000 0.140000 0.000000 
0.025000 0.140000 0.000000 
0.050000 0.140000 0.000000 
0.050000 0.150000 0.000000 
0.050000 0.160000 0.000000 
0.025000 0.160000 0.000000 
0.000000 0.160000 0.000000 
0.000000 0.150000 0.000000 
0.000000 0.160000 0.000000 
0.025000 0.160000 0.000000 
0.050000 0.160000 0.000000 
0.050000 0.170000 0.000000 
0.050000 0.180000 0.000000 
0.025000 0.180000 0.000000 
0.000000 0.180000 0.000000 
0.000000 0.170000 0.000000 
0.000000 0.180000 0.000000 
0.025000 0.180000 0.000000 
0.050000 0.180000 0.000000 
0.050000 0.190000 0.000000 
0.050000 0.200000 0.000000 
0.025000 0.200000 0.000000 
0.000000 0.200000 0.000000 
0.000000 0.190000 0.000000 
0.000000 0.200000 0.000000 
0.025000 0.200000 0.000000 
0.050000 0.200000 0.000000 
0.050000 0.240000 0.000000 
0.050000 0.280000 0.000000 
0.025000 0.280000 0.000000 
0.000000 0.280000 0.000000 
0.000000 0.240000 0.000000 
0.000000 0.280000 0.000000 
0.025000 0.280000 0.000000 
0.050000 0.280000 0.000000 
0.050000 0.320000 0.000000 
0.050000 0.360000 0.000000 
0.025000 0.360000 0.000000 
0.000000 0.360000 0.000000 
0.000000 0.320000 0.000000 
0.000000 0.360000 0.000000 
0.025000 0.360000 0.000000 
0.050000 0.360000 0.000000 
0.050000 0.400000 0.000000 
0.050000 0.440000 0.000000 
0.025000 0.440000 0.000000 
0.000000 0.440000 0.000000 
0.000000 0.400000 0.000000 
0.000000 0.440000 0.000000 
0.025000 0.440000 0.000000 
0.050000 0.440000 0.000000 
0.050000 0.480000 0.000000 
0.050000 0.520000 0.000000 
0.025000 0.520000 0.000000 
0.000000 0.520000 0.000000 
0.000000 0.480000 0.000000 
0.000000 0.520000 0.000000 
0.025000 0.520000 0.000000 
0.050000 0.520000 0.000000 
0.050000 0.560000 0.000000 
0.050000 0.600000 0.000000 
0.025000 0.600000 0.000000 
0.000000 0.600000 0.000000 
0.000000 0.560000 0.000000 
0.000000 0.600000 0.000000 
0.025000 0.600000 0.000000 
0.050000 0.600000 0.000000 
0.050000 0.640000 0.000000 
0.050000 0.680000 0.000000 
0.025000 0.680000 0.000000 
0.000000 0.680000 0.000000 
0.000000 0.640000 0.000000 
0.000000 0.680000 0.000000 
0.025000 0.680000 0.000000 
0.050000 0.680000 0.000000 
0.050000 0.720000 0.000000 
0.050000 0.760000 0.000000 
0.025000 0.760000 0.000000 
0.000000 0.760000 0.000000 
0.000000 0.720000 0.000000 
0.000000 0.760000 0.000000 
0.025000 0.760000 0.000000 
0.050000 0.760000 0.000000 
0.050000 0.800000 0.000000 
0.050000 0.840000 0.000000 
0.025000 0.840000 0.000000 
0.000000 0.840000 0.000000 
0.000000 0.800000 0.000000 
0.000000 0.840000 0.000000 
0.025000 0.840000 0.000000 
0.050000 0.840000 0.000000 
0.050000 0.880000 0.000000 
0.050000 0.920000 0.000000 
0.025000 0.920000 0.000000 
0.000000 0.920000 0.000000 
0.000000 0.880000 0.000000 
0.000000 0.920000 0.000000 
0.025000 0.920000 0.000000 
0.050000 0.920000 0.000000 
0.050000 0.960000 0.000000 
0.050000 1.000000 0.000000 
0.025000 1.000000 0.000000 
0.000000 1.000000 0.000000 
0.000000 0.960000 0.000000 
0.050000 0.000000 0.000000 
0.075000 0.000000 0.000000 
0.100000 0.000000 0.000000 
0.100000 0.010000 0.000000 
0.100000 0.020000 0.000000 
0.075000 0.020000 0.000000 
0.050000 0.020000 0.000000 
0.050000 0.010000 0.000000 
0.050000 0.020000 0.000000 
0.075000 0.020000 0.000000 
0.100000 0.020000 0.000000 
0.100000 0.030000 0.000000 
0.100000 0.040000 0.000000 
0.075000 0.040000 0.000000 
0.050000 0.040000 0.000000 
0.050000 0.030000 0.000000 
0.050000 0.040000 0.000000 
0.075000 0.040000 0.000000 
0.100000 0.040000 0.000000 
0.100000 0.050000 0.000000 
0.100000 0.060000 0.000000 
0.075000 0.060000 0.000000 
0.050000 0.060000 0.000000 
0.050000 0.050000 0.000000 
0.050000 0.060000 0.000000 
0.075000 0.060000 0.000000 
0.100000 0.060000 0.000000 
0.100000 0.070000 0.000000 
0.100000 0.080000 0.000000 
0.075000 0.080000 0.000000 
0.050000 0.080000 0.000000 
0.050000 0.070000 0.000000 
0.050000 0.080000 0.000000 
0.075000 0.080000 0.000000 
0.100000 0.080000 0.000000 
0.100000 0.090000 0.000000 
0.100000 0.100000 0.000000 
0.075000 0.100000 0.000000 
0.050000 0.100000 0.000000 
0.050000 0.090000 0.000000 
0.050000 0.100000 0.000000 
0.075000 0.100000 0.000000 
0.100000 0.100000 0.000000 
0.100000 0.110000 0.000000 
0.100000 0.120000 0.000000 
0.075000 0.120000 0.000000 
0.050000 0.120000 0.000000 
0.050000 0.110000 0.000000 
0.050000 0.120000 0.000000 
0.075000 0.120000 0.000000 
0.100000 0.120000 0.000000 
0.100000 0.130000 0.000000 
0.100000 0.140000 0.000000 
0.075000 0.140000 0.000000 
0.050000 0.140000 0.000000 
0.050000 0.130000 0.000000 
0.050000 0.140000 0.000000 
0.075000 0.140000 0.000000 
0.100000 0.140000 0.000000 
0.100000 0.150000 0.000000 
0.100000 0.160000 0.000000 
0.075000 0.160000 0.000000 
0.050000 0.160000 0.000000 
0.050000 0.150000 0.000000 
0.050000 0.160000 0.000000 
0.075000 0.160000 0.000000 
0.100000 0.160000 0.000000 
0.100000 0.170000 0.000000 
0.100000 0.180000 0.000000 
0.075000 0.180000 0.000000 
0.050000 0.180000 0.000000 
0.050000 0.170000 0.000000 
0.050000 0.180000 0.000000 
0.075000 0.180000 0.000000 
0.100000 0.180000 0.000000 
0.100000 0.190000 0.000000 
0.100000 0.200000 0.000000 
0.075000 0.200000 0.000000 
0.050000 0.200000 0.000000 
0.050000 0.190000 0.000000 
0.050000 0.200000 0.000000 
0.075000 0.200000 0.000000 
0.100000 0.200000 0.000000 
0.100000 0.240000 0.000000 
0.100000 0.280000 0.000000 
0.075000 0.280000 0.000000 
0.050000 0.280000 0.000000 
0.050000 0.240000 0.000000 
0.050000 0.280000 0.000000 
0.075000 0.280000 0.000000 
0.100000 0.280000 0.000000 
0.100000 0.320000 0.000000 
0.100000 0.360000 0.000000 
0.075000 0.360000 0.000000 
0.050000 0.360000 0.000000 
0.050000 0.320000 0.000000 
0.050000 0.360000 0.000000 
0.075000 0.360000 0.000000 
0.100000 0.360000 0.000000 
0.100000 0.400000 0.000000 
0.100000 0.440000 0.000000 
0.075000 0.440000 0.000000 
0.050000 0.440000 0.000000 
0.050000 0.400000 0.000000 
0.050000 0.440000 0.000000 
0.075000 0.440000 0.000000 
0.100000 0.440000 0.000000 
0.100000 0.480000 0.000000 
0.100000 0.520000 0.000000 
0.075000 0.520000 0.000000 
0.050000 0.520000 0.000000 
0.050000 0.480000 0.000000 
0.050000 0.520000 0.000000 
0.075000 0.520000 0.000000 
0.100000 0.520000 0.000000 
0.100000 0.560000 0.000000 
0.100000 0.600000 0.000000 
0.075000 0.600000 0.000000 
0.050000 0.600000 0.000000 
0.050000 0.560000 0.000000 
0.050000 0.600000 0.000000 
0.075000 0.600000 0.000000 
0.100000 0.600000 0.000000 
0.100000 0.640000 0.000000 
0.100000 0.680000 0.000000 
0.075000 0.680000 0.000000 
0.050000 0.680000 0.000000 
0.050000 0.640000 0.000000 
0.050000 0.680000 0.000000 
0.075000 0.680000 0.000000 
0.100000 0.680000 0.000000 
0.100000 0.720000 0.000000 
0.100000 0.760000 0.000000 
0.075000 0.760000 0.000000 
0.050000 0.760000 0.000000 
0.050000 0.720000 0.000000 
0.050000 0.760000 0.000000 
0.075000 0.760000 0.000000 
0.100000 0.760000 0.000000 
0.100000 0.800000 0.000000 
0.100000 0.840000 0.000000 
0.075000 0.840000 0.000000 
0.050000 0.840000 0.000000 
0.050000 0.800000 0.000000 
0.050000 0.840000 0.000000 
0.075000 0.840000 0.000000 
0.100000 0.840000 0.000000 
0.100000 0.880000 0.000000 
0.100000 0.920000 0.000000 
0.075000 0.920000 0.000000 
0.050000 0.920000 0.000000 
0.050000 0.880000 0.000000 
0.050000 0.920000 0.000000 
0.075000 0.920000 0.000000 
0.100000 0.920000 0.000000 
0.100000 0.960000 0.000000 
0.100000 1.000000 0.000000 
0.075000 1.000000 0.000000 
0.050000 1.000000 0.000000 
0.050000 0.960000 0.000000 
0.100000 0.000000 0.000000 
0.125000 0.000000 0.000000 
0.150000 0.000000 0.000000 
0.150000 0.010000 0.000000 
0.150000 0.020000 0.000000 
0.125000 0.020000 0.000000 
0.100000 0.020000 0.000000 
0.100000 0.010000 0.000000 
0.100000 0.020000 0.000000 
0.125000 0.020000 0.000000 
0.150000 0.020000 0.000000 
0.150000 0.030000 0.000000 
0.150000 0.040000 0.000000 
0.125000 0.040000 0.000000 
0.100000 0.040000 0.000000 
0.100000 0.030000 0.000000 
0.100000 0.040000 0.000000 
0.125000 0.040000 0.000000 
0.150000 0.040000 0.000000 
0.150000 0.050000 0.000000 
0.150000 0.060000 0.000000 
0.125000 0.060000 0.000000 
0.100000 0.060000 0.000000 
0.100000 0.050000 0.000000 
0.100000 0.060000 0.000000 
0.125000 0.060000 0.000000 
0.150000 0.060000 0.000000 
0.150000 0.070000 0.000000 
0.150000 0.080000 0.000000 
0.125000 0.080000 0.000000 
0.100000 0.080000 0.000000 
0.100000 0.070000 0.000000 
0.100000 0.080000 0.000000 
[...]
CELL_DATA 400
FIELD FieldData 1
material 1 400 int
1
1
1
1
1
1
1
1
1
1
1
1
1
1
1
1
1
1
1
1
1
1
1
1
1
1
1
1
1
1
1
1
1
1
1
1
1
1
1
1
1
1
1
1
1
1
1
1
1
1
1
1
1
1
1
1
1
1
1
1
1
1
1
1
1
1
1
1
1
1
1
1
1
1
1
1
1
1
1
1
1
1
1
1
1
1
1
1
1
1
1
1
1
1
1
1
1
1
1
1
1
1
1
1
1
1
1
1
1
1
1
1
1
1
1
1
1
1
1
1
1
1
1
1
1
1
1
1
1
1
1
1
1
1
1
1
1
1
1
1
1
1
1
1
1
1
1
1
1
1
1
1
1
1
1
1
1
1
1
1
1
1
1
1
1
1
1
1
1
1
1
1
1
1
1
1
1
1
1
1
1
1
1
1
1
1
1
1
1
1
1
1
1
1
1
1
1
1
1
1
1
1
1
1
1
1
1
1
1
1
1
1
1
1
1
1
1
1
1
1
1
1
1
1
1
1
1
1
1
1
1
1
1
1
1
1
1
1
1
1
1
1
1
1
1
1
1
1
1
1
1
1
1
1
1
1
1
1
1
1
1
1
1
1
1
1
1
1
1
1
1
1
1
1
1
1
1
1
1
1
1
1
1
1
1
1
1
1
1
1
1
1
1
1
1
1
1
1
1
1
1
1
1
1
1
1
1
1
1
1
1
1
1
1
1
1
1
1
1
1
1
1
1
1
1
1
1
1
1
1
1
1
1
1
1
1
1
1
1
1
1
1
1
1
1
1
1
1
1
1
1
1
1
1
1
1
1
1
1
1
1
1
1
1
1
1
1
1
1
1
1
1
1
1
1
1
1
1
1
1
1
1
1
1
1
1
1
1
1
1
1
1
1
1
1
1
1
1
1
1
POINT_DATA 3200 SCALARS flux_g1 double 
LOOKUP_TABLE   default 
6.28344240e+00
6.44220365e+00
6.61336659e+00
6.67955551e+00
6.74827164e+00
6.57233773e+00
6.41185605e+00
6.34639139e+00
6.41183791e+00
6.57237935e+00
6.74824768e+00
6.81668290e+00
6.88773706e+00
6.70855761e+00
6.54503381e+00
6.47725171e+00
6.54504602e+00
6.70853790e+00
6.88774774e+00
6.95869481e+00
7.03228719e+00
6.84976770e+00
6.68328909e+00
6.61299862e+00
6.68329195e+00
6.84976086e+00
7.03229093e+00
7.10577039e+00
7.18185368e+00
6.99614461e+00
6.82651347e+00
6.75372540e+00
6.82651266e+00
6.99614553e+00
7.18185370e+00
7.25783583e+00
7.33642328e+00
7.14759621e+00
6.97476608e+00
6.89946361e+00
6.97476419e+00
7.14759937e+00
7.33642109e+00
7.41491107e+00
7.49600815e+00
7.30410591e+00
7.12805176e+00
7.05023245e+00
7.12805017e+00
7.30410807e+00
7.49600558e+00
7.57701014e+00
7.66063420e+00
7.46565638e+00
7.28637912e+00
7.20603978e+00
7.28637931e+00
7.46565528e+00
7.66063486e+00
7.74417186e+00
7.83035273e+00
7.63225325e+00
7.44974114e+00
7.36688863e+00
7.44973795e+00
7.63226150e+00
7.83034874e+00
7.91641979e+00
8.00511861e+00
7.80398217e+00
7.61815545e+00
7.53275186e+00
7.61816417e+00
7.80396602e+00
8.00512516e+00
8.09377532e+00
8.18509683e+00
7.98091038e+00
7.79183852e+00
7.70369040e+00
7.79186087e+00
7.98020545e+00
8.18504834e+00
8.54956894e+00
8.95459641e+00
8.73744490e+00
8.53595321e+00
8.14758694e+00
8.53596843e+00
8.73742566e+00
8.95461197e+00
9.35901042e+00
9.80426533e+00
9.57445669e+00
9.36031328e+00
8.93155078e+00
9.36030956e+00
9.57446178e+00
9.80426590e+00
1.02488285e+01
1.07342411e+01
1.04917593e+01
1.02650722e+01
9.79607686e+00
1.02650739e+01
1.04917555e+01
1.07342439e+01
1.12189369e+01
1.17445420e+01
1.14894758e+01
1.12502453e+01
1.07410503e+01
1.12502467e+01
1.14894771e+01
1.17445430e+01
1.22694423e+01
1.28352808e+01
1.25676551e+01
1.23158630e+01
1.17664387e+01
1.23158633e+01
1.25676553e+01
1.28352813e+01
1.34004151e+01
1.40064840e+01
1.37262948e+01
1.34619338e+01
1.28722843e+01
1.34619331e+01
1.37262953e+01
1.40064832e+01
1.46118463e+01
1.52581287e+01
1.49653763e+01
1.46884461e+01
1.40585781e+01
1.46884459e+01
1.49653760e+01
1.52581274e+01
1.59036799e+01
1.65901301e+01
1.62849131e+01
1.59953673e+01
1.53252974e+01
1.59953665e+01
1.62849123e+01
1.65901281e+01
1.72759288e+01
1.80026155e+01
1.76846799e+01
1.73827829e+01
1.66724618e+01
1.73828322e+01
1.76845736e+01
1.80026560e+01
1.87284928e+01
1.94949488e+01
1.91652897e+01
1.88502934e+01
1.81000626e+01
6.61334476e+00
6.78790597e+00
6.97481295e+00
7.04415975e+00
7.11603503e+00
6.92448965e+00
6.74825669e+00
6.67955752e+00
6.74823311e+00
6.92452531e+00
7.11602821e+00
7.18761784e+00
7.26170752e+00
7.06703429e+00
6.88773635e+00
6.81667594e+00
6.88774190e+00
7.06703528e+00
7.26170038e+00
7.33585804e+00
7.41252733e+00
7.21460381e+00
7.03227281e+00
6.95875791e+00
7.03228159e+00
7.21458400e+00
7.41254172e+00
7.48920014e+00
7.56832834e+00
7.36714759e+00
7.18185652e+00
7.10578895e+00
7.18186213e+00
7.36713333e+00
7.56833563e+00
7.64746847e+00
7.72914969e+00
7.52480318e+00
7.33645325e+00
7.25790082e+00
7.33645223e+00
7.52480573e+00
7.72914961e+00
7.81084098e+00
7.89509855e+00
7.68759581e+00
7.49601912e+00
7.41497824e+00
7.49601143e+00
7.68761303e+00
7.89509047e+00
7.97934150e+00
8.06606582e+00
7.85557173e+00
7.66060459e+00
7.57701819e+00
7.66059779e+00
7.85558731e+00
8.06605259e+00
8.15277995e+00
8.24194497e+00
8.02848523e+00
7.83033251e+00
7.74419131e+00
7.83034178e+00
8.02845809e+00
8.24195804e+00
8.33118881e+00
8.42307054e+00
8.20626062e+00
8.00511583e+00
7.91647192e+00
8.00511055e+00
8.20629186e+00
8.42306636e+00
8.51494301e+00
8.60912742e+00
8.38930666e+00
8.18506591e+00
8.09378860e+00
8.18495088e+00
8.38912641e+00
8.60905564e+00
8.98615238e+00
9.40359977e+00
9.17115786e+00
8.95450171e+00
8.54975615e+00
8.95451093e+00
9.17118077e+00
9.40357336e+00
9.82077331e+00
1.02783388e+01
1.00332879e+01
9.80416362e+00
9.35916091e+00
9.80417486e+00
1.00332525e+01
1.02783388e+01
1.07355511e+01
1.12333766e+01
1.09759058e+01
1.07341660e+01
1.02490424e+01
1.07341639e+01
1.09759154e+01
1.12333718e+01
1.17309014e+01
1.22689006e+01
1.19988612e+01
1.17444503e+01
1.12191340e+01
1.17444503e+01
1.19988664e+01
1.22689009e+01
1.28066058e+01
1.33848132e+01
1.31021723e+01
1.28351845e+01
1.22696200e+01
1.28351859e+01
1.31021710e+01
1.33848147e+01
1.39627088e+01
1.45811196e+01
1.42859239e+01
1.40063921e+01
1.34005928e+01
1.40063916e+01
1.42859220e+01
1.45811192e+01
1.51992262e+01
1.58578494e+01
1.55500783e+01
1.52580415e+01
1.46120340e+01
1.52580429e+01
1.55500728e+01
1.58578523e+01
1.65161480e+01
1.72150202e+01
1.68946368e+01
1.65900431e+01
1.59038860e+01
1.65900324e+01
1.68946594e+01
1.72150232e+01
1.79136321e+01
1.86526460e+01
1.83195700e+01
1.80025140e+01
1.72760885e+01
1.80025659e+01
1.83194350e+01
1.86527238e+01
1.93912797e+01
2.01702253e+01
1.98254508e+01
1.94948630e+01
1.87286826e+01
6.97482105e+00
7.16490329e+00
7.36746814e+00
7.43994201e+00
7.51496347e+00
7.30769616e+00
7.11604143e+00
7.04416241e+00
7.11603128e+00
7.30773300e+00
7.51494303e+00
7.58972611e+00
7.66702313e+00
7.45652090e+00
7.26170607e+00
7.18763300e+00
7.26170626e+00
7.45651523e+00
7.66703577e+00
7.74431667e+00
7.82415853e+00
7.61025679e+00
7.41252250e+00
7.33582783e+00
7.41253198e+00
7.61023791e+00
7.82416442e+00
7.90396279e+00
7.98632565e+00
7.76934793e+00
7.56832187e+00
7.48916860e+00
7.56831856e+00
7.76935684e+00
7.98631732e+00
8.06865152e+00
8.15344794e+00
7.93357544e+00
7.72914283e+00
7.64746121e+00
7.72914045e+00
7.93357674e+00
8.15344311e+00
8.23827060e+00
8.32552544e+00
8.10261514e+00
7.89510525e+00
7.81086240e+00
7.89510843e+00
8.10260109e+00
8.32553299e+00
8.41281797e+00
8.50266387e+00
8.27644711e+00
8.06607833e+00
7.97937860e+00
8.06607769e+00
8.27644860e+00
8.50267168e+00
8.59250436e+00
8.68500083e+00
8.45551501e+00
8.24194379e+00
8.15274707e+00
8.24194140e+00
8.45554254e+00
8.68499167e+00
8.77746872e+00
8.87235082e+00
8.63993877e+00
8.42306902e+00
8.33116387e+00
8.42306749e+00
8.63990954e+00
8.87234550e+00
8.96720928e+00
9.06453794e+00
8.82898895e+00
8.60914303e+00
8.51494259e+00
8.60908753e+00
8.82892173e+00
9.06451610e+00
9.45402502e+00
9.88418154e+00
9.63605587e+00
9.40362955e+00
8.98609558e+00
9.40361169e+00
9.63598410e+00
9.88418574e+00
1.03136729e+01
1.07840344e+01
1.05234177e+01
1.02783986e+01
9.82069003e+00
1.02783897e+01
1.05234573e+01
1.07840488e+01
1.12539089e+01
1.17642333e+01
1.14909252e+01
1.12334098e+01
1.07354330e+01
1.12334106e+01
1.14909198e+01
1.17642343e+01
1.22741509e+01
1.28247418e+01
1.25389487e+01
1.22689513e+01
1.17307925e+01
1.22689517e+01
1.25389440e+01
1.28247424e+01
1.33749061e+01
1.39657346e+01
1.36674224e+01
1.33848684e+01
1.28065224e+01
1.33848692e+01
1.36674239e+01
1.39657320e+01
1.45561359e+01
1.51872127e+01
1.48763319e+01
1.45811707e+01
1.39626291e+01
1.45811687e+01
1.48763348e+01
1.51872123e+01
1.58178696e+01
1.64891900e+01
1.61656546e+01
1.58578903e+01
1.51991268e+01
1.58578924e+01
1.61656544e+01
1.64891902e+01
1.71600780e+01
1.78715204e+01
1.75355472e+01
1.72150700e+01
1.65160324e+01
1.72150769e+01
1.75355298e+01
1.78715062e+01
1.85824860e+01
1.93343137e+01
1.89854199e+01
1.86526821e+01
1.79135502e+01
1.86527528e+01
1.89853622e+01
1.93343786e+01
2.00853817e+01
2.08770267e+01
2.05165637e+01
2.01702578e+01
1.93912172e+01
7.36746996e+00
7.57327506e+00
7.79166506e+00
7.86728897e+00
7.94549712e+00
7.72241773e+00
7.51495813e+00
7.43993703e+00
7.51494004e+00
7.72244543e+00
7.94548568e+00
8.02344017e+00
8.10387033e+00
7.87768981e+00
7.66700790e+00
7.58970841e+00
7.66701538e+00
7.87768449e+00
8.10387460e+00
8.18431742e+00
8.26720906e+00
8.03783171e+00
7.82415482e+00
7.74430912e+00
7.82416266e+00
8.03780933e+00
8.26721741e+00
8.35009493e+00
8.43548638e+00
8.20298870e+00
7.98633728e+00
7.90400165e+00
7.98633804e+00
8.20298180e+00
8.43549010e+00
8.52089856e+00
8.60885730e+00
8.37319100e+00
8.15345702e+00
8.06866146e+00
8.15345402e+00
8.37319770e+00
8.60885700e+00
8.69679907e+00
8.78730867e+00
8.54849290e+00
8.32552714e+00
8.23824409e+00
8.32552615e+00
8.54850377e+00
8.78730467e+00
8.87780450e+00
8.97085631e+00
8.72894744e+00
8.50266060e+00
8.41281431e+00
8.50266169e+00
8.72894814e+00
8.97085645e+00
9.06394010e+00
9.15948006e+00
8.91447853e+00
8.68498974e+00
8.59251308e+00
8.68498696e+00
8.91447102e+00
9.15947501e+00
9.25499789e+00
9.35294735e+00
9.10479645e+00
8.87234694e+00
8.77747190e+00
8.87234746e+00
9.10478992e+00
9.35295505e+00
9.45091928e+00
9.55144256e+00
9.30010468e+00
9.06453649e+00
8.96719548e+00
9.06450721e+00
9.30010032e+00
9.55143432e+00
9.95349657e+00
1.03960380e+01
1.01322648e+01
9.88417633e+00
9.45404209e+00
9.88417547e+00
1.01323162e+01
1.03960796e+01
1.08384688e+01
1.13209395e+01
1.10445755e+01
1.07840182e+01
1.03136856e+01
1.07840260e+01
1.10445904e+01
1.13209197e+01
1.18036474e+01
1.23263864e+01
1.20374842e+01
1.17642083e+01
1.12539676e+01
1.17642120e+01
1.20374781e+01
1.23263979e+01
1.28491734e+01
1.34120603e+01
1.31105215e+01
1.28247212e+01
1.22741899e+01
1.28247221e+01
1.31105206e+01
1.34120606e+01
1.39750261e+01
1.45781465e+01
1.42640299e+01
1.39657098e+01
1.33749305e+01
1.39657060e+01
1.42640372e+01
1.45781449e+01
1.51813453e+01
1.58247377e+01
1.54980873e+01
1.51871896e+01
1.45561688e+01
1.51871931e+01
1.54980751e+01
1.58247413e+01
1.64682187e+01
1.71518354e+01
1.68126286e+01
1.64891725e+01
1.58178973e+01
1.64891674e+01
1.68126390e+01
1.71518263e+01
1.78354910e+01
1.85592052e+01
1.82075325e+01
1.78715000e+01
1.71601381e+01
1.78714913e+01
1.82075282e+01
1.85592114e+01
1.92831875e+01
2.00472848e+01
1.96828200e+01
1.93343010e+01
1.85825054e+01
1.93343727e+01
1.96826609e+01
2.00473149e+01
2.08110880e+01
2.16152349e+01
2.12390665e+01
2.08770172e+01
2.00853895e+01
7.79172032e+00
8.01319154e+00
8.24737250e+00
8.40475730e+00
8.57193440e+00
8.24650462e+00
7.94558330e+00
7.86723437e+00
7.94553105e+00
8.24650513e+00
8.57192176e+00
8.73906593e+00
8.91618472e+00
8.49077630e+00
8.10386497e+00
8.02349623e+00
8.10388397e+00
8.49073611e+00
8.91618462e+00
9.09325704e+00
9.28058534e+00
8.74508465e+00
8.26721565e+00
8.18431410e+00
8.26720882e+00
8.74508815e+00
9.28057154e+00
9.46781093e+00
9.66514181e+00
9.00976390e+00
8.43545891e+00
8.35007213e+00
8.43545527e+00
9.00977138e+00
9.66513611e+00
9.86244822e+00
1.00697811e+01
9.28447552e+00
8.60883547e+00
8.52088163e+00
8.60884147e+00
9.28446376e+00
1.00697854e+01
1.02771432e+01
1.04945087e+01
9.56912421e+00
8.78734956e+00
8.69682720e+00
8.78735547e+00
9.56911153e+00
1.04945172e+01
1.07119390e+01
1.09394007e+01
9.86366545e+00
8.97094624e+00
8.87789154e+00
8.97094507e+00
9.86366548e+00
1.09394022e+01
1.11668721e+01
1.14044539e+01
1.01683237e+01
9.15945667e+00
9.06395896e+00
9.15944262e+00
1.01683507e+01
1.14044408e+01
1.16419602e+01
1.18895469e+01
1.04832656e+01
9.35286670e+00
9.25489852e+00
9.35286729e+00
1.04832668e+01
1.18895445e+01
1.21370962e+01
1.23946780e+01
1.08082773e+01
9.55136443e+00
9.45085380e+00
9.55136962e+00
1.08082667e+01
1.23946821e+01
1.27811752e+01
1.31901759e+01
1.16551641e+01
1.03961019e+01
9.95358712e+00
1.03961200e+01
1.16551005e+01
1.31902293e+01
1.35992622e+01
1.40309523e+01
1.25626174e+01
1.13209241e+01
1.08384009e+01
1.13209254e+01
1.25626450e+01
1.40309256e+01
1.44625694e+01
1.49168003e+01
1.35301970e+01
1.23264082e+01
1.18036370e+01
1.23264175e+01
1.35301821e+01
1.49168076e+01
1.53710408e+01
1.58479457e+01
1.45580128e+01
1.34120580e+01
1.28491485e+01
1.34120648e+01
1.45580264e+01
1.58479372e+01
1.63248193e+01
1.68243796e+01
1.56462635e+01
1.45781547e+01
1.39750102e+01
1.45781589e+01
1.56462617e+01
1.68243735e+01
1.73238722e+01
1.78459996e+01
1.67949182e+01
1.58247302e+01
1.51813241e+01
1.58247381e+01
1.67949222e+01
1.78459904e+01
1.83681361e+01
1.89129192e+01
1.80037047e+01
1.71518487e+01
1.64682318e+01
1.71518540e+01
1.80037066e+01
1.89129239e+01
1.94576345e+01
2.00251383e+01
1.92730456e+01
1.85591956e+01
1.78354527e+01
1.85591937e+01
1.92730773e+01
2.00250973e+01
2.05925518e+01
2.11824652e+01
2.06023831e+01
2.00472805e+01
1.92832143e+01
2.00473011e+01
2.06022957e+01
2.11825527e+01
2.17722552e+01
2.23848205e+01
2.19930526e+01
2.16152135e+01
2.08111271e+01
8.24747173e+00
8.48415180e+00
8.73436309e+00
8.97958824e+00
9.24740961e+00
8.89715968e+00
8.57201933e+00
8.40462889e+00
8.57195358e+00
8.89722264e+00
9.24740660e+00
9.51498559e+00
9.80521559e+00
9.34147439e+00
8.91619286e+00
8.73901314e+00
8.91617806e+00
9.34151164e+00
9.80521647e+00
1.00954983e+01
1.04084031e+01
9.81596682e+00
9.28057906e+00
9.09331178e+00
9.28056648e+00
9.81596544e+00
1.04084033e+01
1.07213088e+01
1.10568091e+01
1.03204494e+01
9.66514150e+00
9.46781810e+00
9.66514388e+00
1.03204373e+01
1.10568174e+01
1.13923621e+01
1.17505633e+01
1.08551069e+01
1.00697893e+01
9.86243686e+00
1.00697889e+01
1.08551080e+01
1.17505663e+01
1.21087123e+01
1.24895096e+01
1.14200718e+01
1.04945046e+01
1.02771104e+01
1.04945081e+01
1.14200744e+01
1.24895047e+01
1.28703088e+01
1.32736662e+01
1.20152149e+01
1.09393958e+01
1.07119289e+01
1.09394007e+01
1.20152103e+01
1.32736690e+01
1.36770566e+01
1.41030674e+01
1.26403260e+01
1.14044484e+01
1.11669004e+01
1.14044439e+01
1.26403307e+01
1.41030656e+01
1.45290845e+01
1.49777512e+01
1.32956712e+01
1.18895274e+01
1.16419667e+01
1.18895191e+01
1.32956833e+01
1.49777470e+01
1.54263637e+01
1.58975698e+01
1.39813090e+01
1.23946692e+01
1.21370614e+01
1.23946746e+01
1.39813030e+01
1.58975718e+01
1.62117147e+01
1.65358907e+01
1.47252464e+01
1.31902003e+01
1.27811337e+01
1.31902175e+01
1.47252233e+01
1.65359008e+01
1.68601151e+01
1.71943866e+01
1.54992150e+01
1.40309362e+01
1.35992809e+01
1.40309279e+01
1.54992223e+01
1.71943853e+01
1.75286411e+01
1.78729684e+01
1.63034729e+01
1.49167975e+01
1.44625514e+01
1.49167998e+01
1.63034722e+01
1.78729660e+01
1.82172892e+01
1.85716370e+01
1.71378694e+01
1.58479472e+01
1.53710592e+01
1.58479482e+01
1.71378650e+01
1.85716428e+01
1.89260275e+01
1.92904697e+01
1.80023383e+01
1.68243864e+01
1.63248498e+01
1.68243764e+01
1.80023513e+01
1.92904666e+01
1.96548998e+01
2.00294150e+01
1.88971280e+01
1.78459952e+01
1.73238600e+01
1.78459889e+01
1.88971380e+01
2.00294078e+01
2.04038896e+01
2.07884467e+01
1.98221522e+01
1.89129058e+01
1.83681387e+01
1.89128998e+01
1.98221561e+01
2.07884496e+01
2.11730253e+01
2.15675578e+01
2.07771890e+01
2.00251240e+01
1.94576875e+01
2.00251131e+01
2.07771402e+01
2.15675874e+01
2.19620821e+01
2.23668469e+01
2.17622180e+01
2.11824857e+01
2.05925084e+01
2.11825073e+01
2.17621814e+01
2.23668945e+01
2.27712287e+01
2.31858059e+01
2.27785141e+01
2.23847501e+01
2.17723419e+01
8.73442464e+00
8.98661291e+00
9.25275561e+00
9.59223481e+00
9.97188167e+00
9.59707697e+00
9.24745136e+00
8.97950076e+00
9.24739300e+00
9.59714461e+00
9.97184740e+00
1.03513194e+01
1.07709264e+01
1.02689890e+01
9.80521487e+00
9.51499999e+00
9.80522192e+00
1.02690003e+01
1.07709353e+01
1.11906271e+01
1.16505503e+01
1.10008624e+01
1.04084094e+01
1.00954887e+01
1.04084188e+01
1.10008466e+01
1.16505589e+01
1.21104836e+01
1.26107239e+01
1.17932166e+01
1.10568056e+01
1.07212866e+01
1.10568060e+01
1.17932275e+01
1.26107109e+01
1.31108991e+01
1.36512562e+01
1.26459650e+01
1.17505580e+01
1.13923786e+01
1.17505570e+01
1.26459714e+01
1.36512585e+01
1.41916541e+01
1.47721738e+01
1.35589106e+01
1.24895088e+01
1.21087208e+01
1.24895091e+01
1.35588975e+01
1.47721760e+01
1.53527229e+01
1.59735496e+01
1.45321810e+01
1.32736751e+01
1.28702963e+01
1.32736748e+01
1.45321886e+01
1.59735493e+01
1.65943496e+01
1.72553027e+01
1.55658515e+01
1.41030523e+01
1.36770472e+01
1.41030469e+01
1.55658630e+01
1.72552927e+01
1.79162753e+01
1.86174595e+01
1.66596760e+01
1.49777594e+01
1.45291081e+01
1.49777648e+01
1.66596581e+01
1.86174699e+01
1.93186885e+01
2.00601576e+01
1.78137914e+01
1.58975912e+01
1.54263677e+01
1.58975881e+01
1.78138001e+01
2.00601545e+01
2.02455175e+01
2.04333920e+01
1.83466419e+01
1.65359205e+01
1.62117198e+01
1.65359241e+01
1.83466379e+01
2.04333935e+01
2.06212709e+01
2.08116687e+01
1.88895214e+01
1.71943862e+01
1.68601310e+01
1.71943825e+01
1.88895285e+01
2.08116648e+01
2.10020489e+01
2.11949511e+01
1.94425054e+01
1.78729443e+01
1.75286336e+01
1.78729432e+01
1.94425059e+01
2.11949507e+01
2.13878352e+01
2.15832332e+01
2.00055725e+01
1.85716250e+01
1.82172530e+01
1.85716319e+01
2.00055607e+01
2.15832389e+01
2.17786392e+01
2.19765447e+01
2.05786205e+01
1.92904658e+01
1.89260245e+01
1.92904684e+01
2.05786154e+01
2.19765476e+01
2.21744710e+01
2.23748945e+01
2.11616397e+01
2.00294219e+01
1.96549287e+01
2.00294226e+01
2.11616359e+01
2.23748986e+01
2.25753525e+01
2.27783086e+01
2.17546561e+01
2.07884546e+01
2.04039076e+01
2.07884642e+01
2.17546618e+01
2.27783130e+01
2.29812313e+01
2.31867054e+01
2.23578453e+01
2.15675634e+01
2.11729564e+01
2.15675663e+01
2.23578930e+01
2.31866779e+01
2.33921957e+01
2.36001429e+01
2.29711822e+01
2.23668115e+01
2.19621441e+01
2.23668132e+01
2.29711721e+01
2.36001893e+01
2.38077455e+01
2.40181721e+01
2.35955167e+01
2.31857194e+01
2.27713522e+01
9.25276965e+00
9.52063722e+00
9.80254738e+00
1.01105074e+01
1.04494460e+01
1.02037286e+01
9.97189072e+00
9.59221524e+00
9.97184585e+00
1.02038504e+01
1.04493876e+01
1.07880726e+01
1.11573922e+01
1.09582483e+01
1.07709258e+01
1.03513219e+01
1.07709391e+01
1.09582482e+01
1.11574013e+01
1.15268148e+01
1.19270401e+01
1.17827948e+01
1.16505488e+01
1.11906244e+01
1.16505570e+01
1.17827965e+01
1.19270454e+01
1.23272470e+01
1.27582841e+01
1.26778718e+01
1.26107248e+01
1.21104823e+01
1.26107164e+01
1.26778907e+01
1.27582746e+01
1.31893528e+01
1.36512043e+01
1.36434133e+01
1.36512450e+01
1.31109117e+01
1.36512484e+01
1.36433939e+01
1.36512141e+01
1.41130538e+01
1.46056766e+01
1.46791879e+01
1.47721836e+01
1.41916459e+01
1.47721778e+01
1.46791951e+01
1.46056692e+01
1.50982642e+01
1.56216409e+01
1.57853040e+01
1.59735433e+01
1.53527260e+01
1.59735483e+01
1.57852903e+01
1.56216464e+01
1.61450027e+01
1.66991941e+01
1.69618669e+01
1.72553168e+01
1.65943458e+01
1.72553113e+01
1.69618728e+01
1.66991907e+01
1.72533947e+01
1.78383334e+01
1.82087545e+01
1.86174635e+01
1.79162764e+01
1.86174619e+01
1.82087559e+01
1.78383361e+01
1.84232836e+01
1.90390554e+01
1.95259966e+01
2.00601459e+01
1.93186826e+01
2.00601459e+01
1.95259941e+01
1.90390560e+01
1.93029462e+01
1.95724986e+01
1.99837491e+01
2.04333921e+01
2.02455098e+01
2.04333917e+01
1.99837504e+01
1.95724973e+01
1.98420524e+01
2.01172689e+01
2.04490619e+01
2.08116676e+01
2.06212698e+01
2.08116666e+01
2.04490654e+01
2.01172666e+01
2.03924910e+01
2.06733572e+01
2.09219185e+01
2.11949524e+01
2.10020515e+01
2.11949526e+01
2.09219197e+01
2.06733566e+01
2.09542330e+01
2.12407461e+01
2.14022899e+01
2.15832340e+01
2.13878442e+01
2.15832389e+01
2.14022830e+01
2.12407459e+01
2.15272705e+01
2.18194435e+01
2.18901602e+01
2.19765475e+01
2.17786514e+01
2.19765522e+01
2.18901532e+01
2.18194458e+01
2.21116102e+01
2.24094329e+01
2.23855379e+01
2.23748979e+01
2.21744744e+01
2.23748986e+01
2.23855350e+01
2.24094381e+01
2.27072509e+01
2.30107518e+01
2.28884516e+01
2.27783048e+01
2.25753475e+01
2.27783020e+01
2.28884629e+01
2.30107552e+01
2.33142469e+01
2.36233875e+01
2.33990558e+01
2.31867117e+01
2.29812042e+01
2.31866987e+01
2.33990671e+01
2.36233759e+01
2.39325209e+01
2.42473096e+01
2.39171484e+01
2.36001378e+01
2.33921704e+01