# vtk DataFile Version 3.0 
Date: 3/21/2016   Time: 14:2
ASCII 
DATASET UNSTRUCTURED_GRID 
 
POINTS 3200 float 
0.000000 0.000000 0.000000 
0.025000 0.000000 0.000000 
0.050000 0.000000 0.000000 
0.050000 0.010000 0.000000 
0.050000 0.020000 0.000000 
0.025000 0.020000 0.000000 
0.000000 0.020000 0.000000 
0.000000 0.010000 0.000000 
0.000000 0.020000 0.000000 
0.025000 0.020000 0.000000 
0.050000 0.020000 0.000000 
0.050000 0.030000 0.000000 
0.050000 0.040000 0.000000 
0.025000 0.040000 0.000000 
0.000000 0.040000 0.000000 
0.000000 0.030000 0.000000 
0.000000 0.040000 0.000000 
0.025000 0.040000 0.000000 
0.050000 0.040000 0.000000 
0.050000 0.050000 0.000000 
0.050000 0.060000 0.000000 
0.025000 0.060000 0.000000 
0.000000 0.060000 0.000000 
0.000000 0.050000 0.000000 
0.000000 0.060000 0.000000 
0.025000 0.060000 0.000000 
0.050000 0.060000 0.000000 
0.050000 0.070000 0.000000 
0.050000 0.080000 0.000000 
0.025000 0.080000 0.000000 
0.000000 0.080000 0.000000 
0.000000 0.070000 0.000000 
0.000000 0.080000 0.000000 
0.025000 0.080000 0.000000 
0.050000 0.080000 0.000000 
0.050000 0.090000 0.000000 
0.050000 0.100000 0.000000 
0.025000 0.100000 0.000000 
0.000000 0.100000 0.000000 
0.000000 0.090000 0.000000 
0.000000 0.100000 0.000000 
0.025000 0.100000 0.000000 
0.050000 0.100000 0.000000 
0.050000 0.110000 0.000000 
0.050000 0.120000 0.000000 
0.025000 0.120000 0.000000 
0.000000 0.120000 0.000000 
0.000000 0.110000 0.000000 
0.000000 0.120000 0.000000 
0.025000 0.120000 0.000000 
0.050000 0.120000 0.000000 
0.050000 0.130000 0.000000 
0.050000 0.140000 0.000000 
0.025000 0.140000 0.000000 
0.000000 0.140000 0.000000 
0.000000 0.130000 0.000000 
0.000000 0.140000 0.000000 
0.025000 0.140000 0.000000 
0.050000 0.140000 0.000000 
0.050000 0.150000 0.000000 
0.050000 0.160000 0.000000 
0.025000 0.160000 0.000000 
0.000000 0.160000 0.000000 
0.000000 0.150000 0.000000 
0.000000 0.160000 0.000000 
0.025000 0.160000 0.000000 
0.050000 0.160000 0.000000 
0.050000 0.170000 0.000000 
0.050000 0.180000 0.000000 
0.025000 0.180000 0.000000 
0.000000 0.180000 0.000000 
0.000000 0.170000 0.000000 
0.000000 0.180000 0.000000 
0.025000 0.180000 0.000000 
0.050000 0.180000 0.000000 
0.050000 0.190000 0.000000 
0.050000 0.200000 0.000000 
0.025000 0.200000 0.000000 
0.000000 0.200000 0.000000 
0.000000 0.190000 0.000000 
0.000000 0.200000 0.000000 
0.025000 0.200000 0.000000 
0.050000 0.200000 0.000000 
0.050000 0.240000 0.000000 
0.050000 0.280000 0.000000 
0.025000 0.280000 0.000000 
0.000000 0.280000 0.000000 
0.000000 0.240000 0.000000 
0.000000 0.280000 0.000000 
0.025000 0.280000 0.000000 
0.050000 0.280000 0.000000 
0.050000 0.320000 0.000000 
0.050000 0.360000 0.000000 
0.025000 0.360000 0.000000 
0.000000 0.360000 0.000000 
0.000000 0.320000 0.000000 
0.000000 0.360000 0.000000 
0.025000 0.360000 0.000000 
0.050000 0.360000 0.000000 
0.050000 0.400000 0.000000 
0.050000 0.440000 0.000000 
0.025000 0.440000 0.000000 
0.000000 0.440000 0.000000 
0.000000 0.400000 0.000000 
0.000000 0.440000 0.000000 
0.025000 0.440000 0.000000 
0.050000 0.440000 0.000000 
0.050000 0.480000 0.000000 
0.050000 0.520000 0.000000 
0.025000 0.520000 0.000000 
0.000000 0.520000 0.000000 
0.000000 0.480000 0.000000 
0.000000 0.520000 0.000000 
0.025000 0.520000 0.000000 
0.050000 0.520000 0.000000 
0.050000 0.560000 0.000000 
0.050000 0.600000 0.000000 
0.025000 0.600000 0.000000 
0.000000 0.600000 0.000000 
0.000000 0.560000 0.000000 
0.000000 0.600000 0.000000 
0.025000 0.600000 0.000000 
0.050000 0.600000 0.000000 
0.050000 0.640000 0.000000 
0.050000 0.680000 0.000000 
0.025000 0.680000 0.000000 
0.000000 0.680000 0.000000 
0.000000 0.640000 0.000000 
0.000000 0.680000 0.000000 
0.025000 0.680000 0.000000 
0.050000 0.680000 0.000000 
0.050000 0.720000 0.000000 
0.050000 0.760000 0.000000 
0.025000 0.760000 0.000000 
0.000000 0.760000 0.000000 
0.000000 0.720000 0.000000 
0.000000 0.760000 0.000000 
0.025000 0.760000 0.000000 
0.050000 0.760000 0.000000 
0.050000 0.800000 0.000000 
0.050000 0.840000 0.000000 
0.025000 0.840000 0.000000 
0.000000 0.840000 0.000000 
0.000000 0.800000 0.000000 
0.000000 0.840000 0.000000 
0.025000 0.840000 0.000000 
0.050000 0.840000 0.000000 
0.050000 0.880000 0.000000 
0.050000 0.920000 0.000000 
0.025000 0.920000 0.000000 
0.000000 0.920000 0.000000 
0.000000 0.880000 0.000000 
0.000000 0.920000 0.000000 
0.025000 0.920000 0.000000 
0.050000 0.920000 0.000000 
0.050000 0.960000 0.000000 
0.050000 1.000000 0.000000 
0.025000 1.000000 0.000000 
0.000000 1.000000 0.000000 
0.000000 0.960000 0.000000 
0.050000 0.000000 0.000000 
0.075000 0.000000 0.000000 
0.100000 0.000000 0.000000 
0.100000 0.010000 0.000000 
0.100000 0.020000 0.000000 
0.075000 0.020000 0.000000 
0.050000 0.020000 0.000000 
0.050000 0.010000 0.000000 
0.050000 0.020000 0.000000 
0.075000 0.020000 0.000000 
0.100000 0.020000 0.000000 
0.100000 0.030000 0.000000 
0.100000 0.040000 0.000000 
0.075000 0.040000 0.000000 
0.050000 0.040000 0.000000 
0.050000 0.030000 0.000000 
0.050000 0.040000 0.000000 
0.075000 0.040000 0.000000 
0.100000 0.040000 0.000000 
0.100000 0.050000 0.000000 
0.100000 0.060000 0.000000 
0.075000 0.060000 0.000000 
0.050000 0.060000 0.000000 
0.050000 0.050000 0.000000 
0.050000 0.060000 0.000000 
0.075000 0.060000 0.000000 
0.100000 0.060000 0.000000 
0.100000 0.070000 0.000000 
0.100000 0.080000 0.000000 
0.075000 0.080000 0.000000 
0.050000 0.080000 0.000000 
0.050000 0.070000 0.000000 
0.050000 0.080000 0.000000 
0.075000 0.080000 0.000000 
0.100000 0.080000 0.000000 
0.100000 0.090000 0.000000 
0.100000 0.100000 0.000000 
0.075000 0.100000 0.000000 
0.050000 0.100000 0.000000 
0.050000 0.090000 0.000000 
0.050000 0.100000 0.000000 
0.075000 0.100000 0.000000 
0.100000 0.100000 0.000000 
0.100000 0.110000 0.000000 
0.100000 0.120000 0.000000 
0.075000 0.120000 0.000000 
0.050000 0.120000 0.000000 
0.050000 0.110000 0.000000 
0.050000 0.120000 0.000000 
0.075000 0.120000 0.000000 
0.100000 0.120000 0.000000 
0.100000 0.130000 0.000000 
0.100000 0.140000 0.000000 
0.075000 0.140000 0.000000 
0.050000 0.140000 0.000000 
0.050000 0.130000 0.000000 
0.050000 0.140000 0.000000 
0.075000 0.140000 0.000000 
0.100000 0.140000 0.000000 
0.100000 0.150000 0.000000 
0.100000 0.160000 0.000000 
0.075000 0.160000 0.000000 
0.050000 0.160000 0.000000 
0.050000 0.150000 0.000000 
0.050000 0.160000 0.000000 
0.075000 0.160000 0.000000 
0.100000 0.160000 0.000000 
0.100000 0.170000 0.000000 
0.100000 0.180000 0.000000 
0.075000 0.180000 0.000000 
0.050000 0.180000 0.000000 
0.050000 0.170000 0.000000 
0.050000 0.180000 0.000000 
0.075000 0.180000 0.000000 
0.100000 0.180000 0.000000 
0.100000 0.190000 0.000000 
0.100000 0.200000 0.000000 
0.075000 0.200000 0.000000 
0.050000 0.200000 0.000000 
0.050000 0.190000 0.000000 
0.050000 0.200000 0.000000 
0.075000 0.200000 0.000000 
0.100000 0.200000 0.000000 
0.100000 0.240000 0.000000 
0.100000 0.280000 0.000000 
0.075000 0.280000 0.000000 
0.050000 0.280000 0.000000 
0.050000 0.240000 0.000000 
0.050000 0.280000 0.000000 
0.075000 0.280000 0.000000 
0.100000 0.280000 0.000000 
0.100000 0.320000 0.000000 
0.100000 0.360000 0.000000 
0.075000 0.360000 0.000000 
0.050000 0.360000 0.000000 
0.050000 0.320000 0.000000 
0.050000 0.360000 0.000000 
0.075000 0.360000 0.000000 
0.100000 0.360000 0.000000 
0.100000 0.400000 0.000000 
0.100000 0.440000 0.000000 
0.075000 0.440000 0.000000 
0.050000 0.440000 0.000000 
0.050000 0.400000 0.000000 
0.050000 0.440000 0.000000 
0.075000 0.440000 0.000000 
0.100000 0.440000 0.000000 
0.100000 0.480000 0.000000 
0.100000 0.520000 0.000000 
0.075000 0.520000 0.000000 
0.050000 0.520000 0.000000 
0.050000 0.480000 0.000000 
0.050000 0.520000 0.000000 
0.075000 0.520000 0.000000 
0.100000 0.520000 0.000000 
0.100000 0.560000 0.000000 
0.100000 0.600000 0.000000 
0.075000 0.600000 0.000000 
0.050000 0.600000 0.000000 
0.050000 0.560000 0.000000 
0.050000 0.600000 0.000000 
0.075000 0.600000 0.000000 
0.100000 0.600000 0.000000 
0.100000 0.640000 0.000000 
0.100000 0.680000 0.000000 
0.075000 0.680000 0.000000 
0.050000 0.680000 0.000000 
0.050000 0.640000 0.000000 
0.050000 0.680000 0.000000 
0.075000 0.680000 0.000000 
0.100000 0.680000 0.000000 
0.100000 0.720000 0.000000 
0.100000 0.760000 0.000000 
0.075000 0.760000 0.000000 
0.050000 0.760000 0.000000 
0.050000 0.720000 0.000000 
0.050000 0.760000 0.000000 
0.075000 0.760000 0.000000 
0.100000 0.760000 0.000000 
0.100000 0.800000 0.000000 
0.100000 0.840000 0.000000 
0.075000 0.840000 0.000000 
0.050000 0.840000 0.000000 
0.050000 0.800000 0.000000 
0.050000 0.840000 0.000000 
0.075000 0.840000 0.000000 
0.100000 0.840000 0.000000 
0.100000 0.880000 0.000000 
0.100000 0.920000 0.000000 
0.075000 0.920000 0.000000 
0.050000 0.920000 0.000000 
0.050000 0.880000 0.000000 
0.050000 0.920000 0.000000 
0.075000 0.920000 0.000000 
0.100000 0.920000 0.000000 
0.100000 0.960000 0.000000 
0.100000 1.000000 0.000000 
0.075000 1.000000 0.000000 
0.050000 1.000000 0.000000 
0.050000 0.960000 0.000000 
0.100000 0.000000 0.000000 
0.125000 0.000000 0.000000 
0.150000 0.000000 0.000000 
0.150000 0.010000 0.000000 
0.150000 0.020000 0.000000 
0.125000 0.020000 0.000000 
0.100000 0.020000 0.000000 
0.100000 0.010000 0.000000 
0.100000 0.020000 0.000000 
0.125000 0.020000 0.000000 
0.150000 0.020000 0.000000 
0.150000 0.030000 0.000000 
0.150000 0.040000 0.000000 
0.125000 0.040000 0.000000 
0.100000 0.040000 0.000000 
0.100000 0.030000 0.000000 
0.100000 0.040000 0.000000 
0.125000 0.040000 0.000000 
0.150000 0.040000 0.000000 
0.150000 0.050000 0.000000 
0.150000 0.060000 0.000000 
0.125000 0.060000 0.000000 
0.100000 0.060000 0.000000 
0.100000 0.050000 0.000000 
0.100000 0.060000 0.000000 
0.125000 0.060000 0.000000 
0.150000 0.060000 0.000000 
0.150000 0.070000 0.000000 
0.150000 0.080000 0.000000 
0.125000 0.080000 0.000000 
0.100000 0.080000 0.000000 
0.100000 0.070000 0.000000 
0.100000 0.080000 0.000000 
[...]
CELL_DATA 400
FIELD FieldData 1
material 1 400 int
1
1
1
1
1
1
1
1
1
1
1
1
1
1
1
1
1
1
1
1
1
1
1
1
1
1
1
1
1
1
1
1
1
1
1
1
1
1
1
1
1
1
1
1
1
1
1
1
1
1
1
1
1
1
1
1
1
1
1
1
1
1
1
1
1
1
1
1
1
1
1
1
1
1
1
1
1
1
1
1
1
1
1
1
1
1
1
1
1
1
1
1
1
1
1
1
1
1
1
1
1
1
1
1
1
1
1
1
1
1
1
1
1
1
1
1
1
1
1
1
1
1
1
1
1
1
1
1
1
1
1
1
1
1
1
1
1
1
1
1
1
1
1
1
1
1
1
1
1
1
1
1
1
1
1
1
1
1
1
1
1
1
1
1
1
1
1
1
1
1
1
1
1
1
1
1
1
1
1
1
1
1
1
1
1
1
1
1
1
1
1
1
1
1
1
1
1
1
1
1
1
1
1
1
1
1
1
1
1
1
1
1
1
1
1
1
1
1
1
1
1
1
1
1
1
1
1
1
1
1
1
1
1
1
1
1
1
1
1
1
1
1
1
1
1
1
1
1
1
1
1
1
1
1
1
1
1
1
1
1
1
1
1
1
1
1
1
1
1
1
1
1
1
1
1
1
1
1
1
1
1
1
1
1
1
1
1
1
1
1
1
1
1
1
1
1
1
1
1
1
1
1
1
1
1
1
1
1
1
1
1
1
1
1
1
1
1
1
1
1
1
1
1
1
1
1
1
1
1
1
1
1
1
1
1
1
1
1
1
1
1
1
1
1
1
1
1
1
1
1
1
1
1
1
1
1
1
1
1
1
1
1
1
1
1
1
1
1
1
1
1
1
1
1
1
1
1
1
1
1
1
1
1
1
1
1
1
1
1
1
1
1
1
1
1
1
1
1
1
1
POINT_DATA 3200 SCALARS flux_g1 double 
LOOKUP_TABLE   default 
6.28343428e+00
6.44192634e+00
6.61335285e+00
6.67969690e+00
6.74824572e+00
6.57238257e+00
6.41183671e+00
6.34650581e+00
6.41182044e+00
6.57238435e+00
6.74821645e+00
6.81668690e+00
6.88773477e+00
6.70857510e+00
6.54502735e+00
6.47724649e+00
6.54504132e+00
6.70852214e+00
6.88774481e+00
6.95870506e+00
7.03227768e+00
6.84979448e+00
6.68327723e+00
6.61297950e+00
6.68328257e+00
6.84978079e+00
7.03228058e+00
7.10576308e+00
7.18184176e+00
6.99616317e+00
6.82650774e+00
6.75369634e+00
6.82650866e+00
6.99616464e+00
7.18184000e+00
7.25783435e+00
7.33641576e+00
7.14760413e+00
6.97476643e+00
6.89943808e+00
6.97476471e+00
7.14761422e+00
7.33641402e+00
7.41491707e+00
7.49600682e+00
7.30410331e+00
7.12805365e+00
7.05021282e+00
7.12804937e+00
7.30412103e+00
7.49600585e+00
7.57702240e+00
7.66063271e+00
7.46565503e+00
7.28638086e+00
7.20601879e+00
7.28637771e+00
7.46566847e+00
7.66063457e+00
7.74418026e+00
7.83035269e+00
7.63224822e+00
7.44974037e+00
7.36686827e+00
7.44973244e+00
7.63227030e+00
7.83035006e+00
7.91644420e+00
8.00512718e+00
7.80396694e+00
7.61814801e+00
7.53273249e+00
7.61814990e+00
7.80398301e+00
8.00513621e+00
8.09381256e+00
8.18505256e+00
7.98100226e+00
7.79177748e+00
7.70363685e+00
7.79183779e+00
7.98056446e+00
8.18501725e+00
8.54963608e+00
8.95453582e+00
8.73780868e+00
8.53590697e+00
8.14686216e+00
8.53592472e+00
8.73779176e+00
8.95455013e+00
9.35913783e+00
9.80420338e+00
9.57480338e+00
9.36028163e+00
8.93081185e+00
9.36028046e+00
9.57479739e+00
9.80420166e+00
1.02489640e+01
1.07341714e+01
1.04921048e+01
1.02650395e+01
9.79535278e+00
1.02650412e+01
1.04921022e+01
1.07341721e+01
1.12190654e+01
1.17444754e+01
1.14898256e+01
1.12502123e+01
1.07403126e+01
1.12502132e+01
1.14898258e+01
1.17444759e+01
1.22695700e+01
1.28352133e+01
1.25680059e+01
1.23158304e+01
1.17657032e+01
1.23158312e+01
1.25680061e+01
1.28352144e+01
1.34005442e+01
1.40064190e+01
1.37266457e+01
1.34619035e+01
1.28715496e+01
1.34619026e+01
1.37266463e+01
1.40064180e+01
1.46119760e+01
1.52580598e+01
1.49657254e+01
1.46884125e+01
1.40578432e+01
1.46884124e+01
1.49657232e+01
1.52580606e+01
1.59038178e+01
1.65900713e+01
1.62852468e+01
1.59953405e+01
1.53245678e+01
1.59953430e+01
1.62852498e+01
1.65900734e+01
1.72760465e+01
1.80025359e+01
1.76850890e+01
1.73827351e+01
1.66717199e+01
1.73827869e+01
1.76849493e+01
1.80025841e+01
1.87286672e+01
1.94948972e+01
1.91654380e+01
1.88502754e+01
1.80994385e+01
6.61333069e+00
6.78761011e+00
6.97480766e+00
7.04429910e+00
7.11600827e+00
6.92454370e+00
6.74822460e+00
6.67970061e+00
6.74820315e+00
6.92453961e+00
7.11600574e+00
7.18762768e+00
7.26170512e+00
7.06701857e+00
6.88774081e+00
6.81668462e+00
6.88773450e+00
7.06701902e+00
7.26169455e+00
7.33585950e+00
7.41252715e+00
7.21461297e+00
7.03225597e+00
6.95876932e+00
7.03227241e+00
7.21457516e+00
7.41253943e+00
7.48918989e+00
7.56832484e+00
7.36717175e+00
7.18184726e+00
7.10578786e+00
7.18185640e+00
7.36716000e+00
7.56833024e+00
7.64743944e+00
7.72914631e+00
7.52483211e+00
7.33644837e+00
7.25788934e+00
7.33644960e+00
7.52482825e+00
7.72914406e+00
7.81081730e+00
7.89509780e+00
7.68759824e+00
7.49602236e+00
7.41497211e+00
7.49601379e+00
7.68761330e+00
7.89508830e+00
7.97934449e+00
8.06606872e+00
7.85553115e+00
7.66060930e+00
7.57703438e+00
7.66059524e+00
7.85557506e+00
8.06606038e+00
8.15278889e+00
8.24194017e+00
8.02846850e+00
7.83033316e+00
7.74420592e+00
7.83034409e+00
8.02845280e+00
8.24195792e+00
8.33116801e+00
8.42308231e+00
8.20626649e+00
8.00512466e+00
7.91647364e+00
8.00512878e+00
8.20625521e+00
8.42307504e+00
8.51494753e+00
8.60914261e+00
8.38928491e+00
8.18502254e+00
8.09381653e+00
8.18491753e+00
8.38915680e+00
8.60905308e+00
8.98614664e+00
9.40360077e+00
9.17116714e+00
8.95443002e+00
8.54977310e+00
8.95443947e+00
9.17116555e+00
9.40356941e+00
9.82077072e+00
1.02783545e+01
1.00332763e+01
9.80410025e+00
9.35924918e+00
9.80411070e+00
1.00332676e+01
1.02783585e+01
1.07354990e+01
1.12333872e+01
1.09759265e+01
1.07340899e+01
1.02491008e+01
1.07340884e+01
1.09759308e+01
1.12333887e+01
1.17308737e+01
1.22689118e+01
1.19988569e+01
1.17443856e+01
1.12191982e+01
1.17443833e+01
1.19988625e+01
1.22689088e+01
1.28065829e+01
1.33848228e+01
1.31021711e+01
1.28351161e+01
1.22696950e+01
1.28351186e+01
1.31021666e+01
1.33848242e+01
1.39626860e+01
1.45811301e+01
1.42859223e+01
1.40063267e+01
1.34006655e+01
1.40063265e+01
1.42859223e+01
1.45811306e+01
1.51992008e+01
1.58578624e+01
1.55500931e+01
1.52579701e+01
1.46121038e+01
1.52579706e+01
1.55500879e+01
1.58578630e+01
1.65161150e+01
1.72150407e+01
1.68946282e+01
1.65899825e+01
1.59039557e+01
1.65899793e+01
1.68946338e+01
1.72150464e+01
1.79136070e+01
1.86526327e+01
1.83196223e+01
1.80024284e+01
1.72761584e+01
1.80024850e+01
1.83194634e+01
1.86527192e+01
1.93913664e+01
2.01702123e+01
1.98252791e+01
1.94948093e+01
1.87288100e+01
6.97481743e+00
7.16460211e+00
7.36746145e+00
7.44008163e+00
7.51493389e+00
7.30775467e+00
7.11601426e+00
7.04429911e+00
7.11600627e+00
7.30775078e+00
7.51491606e+00
7.58971918e+00
7.66703235e+00
7.45652113e+00
7.26170129e+00
7.18764002e+00
7.26169959e+00
7.45647594e+00
7.66703633e+00
7.74433900e+00
7.82414409e+00
7.61026869e+00
7.41252096e+00
7.33582759e+00
7.41252697e+00
7.61026222e+00
7.82415192e+00
7.90395516e+00
7.98631526e+00
7.76934906e+00
7.56831388e+00
7.48916701e+00
7.56830523e+00
7.76939278e+00
7.98631190e+00
8.06865696e+00
8.15344730e+00
7.93355112e+00
7.72913531e+00
7.64744508e+00
7.72913066e+00
7.93357951e+00
8.15344754e+00
8.23826717e+00
8.32551817e+00
8.10261651e+00
7.89510330e+00
7.81085704e+00
7.89511391e+00
8.10259060e+00
8.32552666e+00
8.41278720e+00
8.50266905e+00
8.27645961e+00
8.06608217e+00
7.97937406e+00
8.06608594e+00
8.27642788e+00
8.50266534e+00
8.59251356e+00
8.68501001e+00
8.45551076e+00
8.24194060e+00
8.15273437e+00
8.24193496e+00
8.45553825e+00
8.68500023e+00
8.77749642e+00
8.87233289e+00
8.63993524e+00
8.42307453e+00
8.33117844e+00
8.42307400e+00
8.63992914e+00
8.87233892e+00
8.96718063e+00
9.06453989e+00
8.82898027e+00
8.60914592e+00
8.51494600e+00
8.60907983e+00
8.82891374e+00
9.06450585e+00
9.45405424e+00
9.88415896e+00
9.63605201e+00
9.40361412e+00
8.98610210e+00
9.40360647e+00
9.63597580e+00
9.88418129e+00
1.03137008e+01
1.07840044e+01
1.05234142e+01
1.02784008e+01
9.82068572e+00
1.02783928e+01
1.05234313e+01
1.07840167e+01
1.12539788e+01
1.17642151e+01
1.14908728e+01
1.12334116e+01
1.07354718e+01
1.12334096e+01
1.14908779e+01
1.17642090e+01
1.22741875e+01
1.28247158e+01
1.25389280e+01
1.22689410e+01
1.17308305e+01
1.22689453e+01
1.25389270e+01
1.28247222e+01
1.33749378e+01
1.39657122e+01
1.36673987e+01
1.33848641e+01
1.28065449e+01
1.33848624e+01
1.36674015e+01
1.39657105e+01
1.45561698e+01
1.51871942e+01
1.48763055e+01
1.45811648e+01
1.39626581e+01
1.45811621e+01
1.48763090e+01
1.51871913e+01
1.58179090e+01
1.64891639e+01
1.61656303e+01
1.58578882e+01
1.51991608e+01
1.58578934e+01
1.61656135e+01
1.64891691e+01
1.71601518e+01
1.78714971e+01
1.75355001e+01
1.72150763e+01
1.65160757e+01
1.72150860e+01
1.75355027e+01
1.78714849e+01
1.85824950e+01
1.93342937e+01
1.89854750e+01
1.86526627e+01
1.79135354e+01
1.86527318e+01
1.89853802e+01
1.93343476e+01
2.00855101e+01
2.08770050e+01
2.05163505e+01
2.01702382e+01
1.93913253e+01
7.36746699e+00
7.57297406e+00
7.79166073e+00
7.86743483e+00
7.94545902e+00
7.72247564e+00
7.51493018e+00
7.44007288e+00
7.51490823e+00
7.72247894e+00
7.94544581e+00
8.02343769e+00
8.10386724e+00
7.87766684e+00
7.66701297e+00
7.58971737e+00
7.66701868e+00
7.87764770e+00
8.10387729e+00
8.18433920e+00
8.26720080e+00
8.03784503e+00
7.82414871e+00
7.74432897e+00
7.82415561e+00
8.03783625e+00
8.26721101e+00
8.35007873e+00
8.43548280e+00
8.20300621e+00
7.98633033e+00
7.90399028e+00
7.98633723e+00
8.20298898e+00
8.43548726e+00
8.52088527e+00
8.60886482e+00
8.37319868e+00
8.15345339e+00
8.06865155e+00
8.15345257e+00
8.37319847e+00
8.60885949e+00
8.69680045e+00
8.78731709e+00
8.54848400e+00
8.32551765e+00
8.23823020e+00
8.32550895e+00
8.54851505e+00
8.78731020e+00
8.87781565e+00
8.97084605e+00
8.72895230e+00
8.50266462e+00
8.41280162e+00
8.50266786e+00
8.72894948e+00
8.97085359e+00
9.06393605e+00
9.15947917e+00
8.91445780e+00
8.68500171e+00
8.59253312e+00
8.68500087e+00
8.91445434e+00
9.15947052e+00
9.25498141e+00
9.35294963e+00
9.10478464e+00
8.87233139e+00
8.77747963e+00
8.87233272e+00
9.10477706e+00
9.35295035e+00
9.45092720e+00
9.55144424e+00
9.30011660e+00
9.06453849e+00
8.96717586e+00
9.06450750e+00
9.30009998e+00
9.55143974e+00
9.95348735e+00
1.03960381e+01
1.01322524e+01
9.88415130e+00
9.45406756e+00
9.88416709e+00
1.01322813e+01
1.03960798e+01
1.08384579e+01
1.13209541e+01
1.10445450e+01
1.07839976e+01
1.03137745e+01
1.07839983e+01
1.10445726e+01
1.13209318e+01
1.18036050e+01
1.23264040e+01
1.20374864e+01
1.17641936e+01
1.12540351e+01
1.17641995e+01
1.20374626e+01
1.23264169e+01
1.28491531e+01
1.34120637e+01
1.31104975e+01
1.28247076e+01
1.22742379e+01
1.28247065e+01
1.31105017e+01
1.34120610e+01
1.39750069e+01
1.45781575e+01
1.42640087e+01
1.39656927e+01
1.33749829e+01
1.39656888e+01
1.42640143e+01
1.45781531e+01
1.51813289e+01
1.58247444e+01
1.54980721e+01
1.51871749e+01
1.45562228e+01
1.51871822e+01
1.54980588e+01
1.58247514e+01
1.64681953e+01
1.71518523e+01
1.68126181e+01
1.64891558e+01
1.58179485e+01
1.64891508e+01
1.68126351e+01
1.71518465e+01
1.78354532e+01
1.85592174e+01
1.82074958e+01
1.78714835e+01
1.71602125e+01
1.78714783e+01
1.82074900e+01
1.85592287e+01
1.92831593e+01
2.00472783e+01
1.96828550e+01
1.93342791e+01
1.85825640e+01
1.93343408e+01
1.96826667e+01
2.00473163e+01
2.08111676e+01
2.16152345e+01
2.12388650e+01
2.08770052e+01
2.00855241e+01
7.79159166e+00
8.01303031e+00
8.24736167e+00
8.40477448e+00
8.57194105e+00
8.24659405e+00
7.94551244e+00
7.86760761e+00
7.94545118e+00
8.24659776e+00
8.57192951e+00
8.73905775e+00
8.91616666e+00
8.49079414e+00
8.10391336e+00
8.02351388e+00
8.10389640e+00
8.49075104e+00
8.91618740e+00
9.09330122e+00
9.28057577e+00
8.74512903e+00
8.26720376e+00
8.18441977e+00
8.26721154e+00
8.74514465e+00
9.28056289e+00
9.46780115e+00
9.66513795e+00
9.00977995e+00
8.43542854e+00
8.35013735e+00
8.43546301e+00
9.00979347e+00
9.66512155e+00
9.86242912e+00
1.00697768e+01
9.28445413e+00
8.60883348e+00
8.52091823e+00
8.60884961e+00
9.28445228e+00
1.00697734e+01
1.02771244e+01
1.04945113e+01
9.56907614e+00
8.78738565e+00
8.69673206e+00
8.78736991e+00
9.56907180e+00
1.04945189e+01
1.07119277e+01
1.09393915e+01
9.86363544e+00
8.97100477e+00
8.87760601e+00
8.97095188e+00
9.86364538e+00
1.09394010e+01
1.11668780e+01
1.14044381e+01
1.01683251e+01
9.15947009e+00
9.06387476e+00
9.15942459e+00
1.01683603e+01
1.14044313e+01
1.16419580e+01
1.18895457e+01
1.04832669e+01
9.35282846e+00
9.25517740e+00
9.35286052e+00
1.04832613e+01
1.18895408e+01
1.21371066e+01
1.23947144e+01
1.08082428e+01
9.55134152e+00
9.45114107e+00
9.55138483e+00
1.08082239e+01
1.23947153e+01
1.27811507e+01
1.31901574e+01
1.16552530e+01
1.03960603e+01
9.95360076e+00
1.03961033e+01
1.16551458e+01
1.31902026e+01
1.35992867e+01
1.40309540e+01
1.25625663e+01
1.13209402e+01
1.08383973e+01
1.13209257e+01
1.25626316e+01
1.40309317e+01
1.44625642e+01
1.49167854e+01
1.35302097e+01
1.23264172e+01
1.18036239e+01
1.23264261e+01
1.35301658e+01
1.49168002e+01
1.53710493e+01
1.58479472e+01
1.45580108e+01
1.34120558e+01
1.28491368e+01
1.34120554e+01
1.45580242e+01
1.58479444e+01
1.63248236e+01
1.68243592e+01
1.56462732e+01
1.45781589e+01
1.39750039e+01
1.45781581e+01
1.56462806e+01
1.68243552e+01
1.73238950e+01
1.78459996e+01
1.67948981e+01
1.58247434e+01
1.51813124e+01
1.58247498e+01
1.67949060e+01
1.78459994e+01
1.83681245e+01
1.89129111e+01
1.80037317e+01
1.71518551e+01
1.64682151e+01
1.71518564e+01
1.80037039e+01
1.89129119e+01
1.94576787e+01
2.00251255e+01
1.92730152e+01
1.85592212e+01
1.78354227e+01
1.85592161e+01
1.92730762e+01
2.00251103e+01
2.05925253e+01
2.11824436e+01
2.06024531e+01
2.00472687e+01
1.92831769e+01
2.00473044e+01
2.06023238e+01
2.11825342e+01
2.17723876e+01
2.23847867e+01
2.19928609e+01
2.16152088e+01
2.08111897e+01
8.24743082e+00
8.48396472e+00
8.73433893e+00
8.97966233e+00
9.24740458e+00
8.89720520e+00
8.57197892e+00
8.40479640e+00
8.57193589e+00
8.89727593e+00
9.24737762e+00
9.51497298e+00
9.80521371e+00
9.34145692e+00
8.91619537e+00
8.73904429e+00
8.91619101e+00
9.34149983e+00
9.80521054e+00
1.00954898e+01
1.04084019e+01
9.81593222e+00
9.28057112e+00
9.09334308e+00
9.28056769e+00
9.81594070e+00
1.04084030e+01
1.07212989e+01
1.10568106e+01
1.03204454e+01
9.66513706e+00
9.46780661e+00
9.66513523e+00
1.03204212e+01
1.10568238e+01
1.13923627e+01
1.17505558e+01
1.08551196e+01
1.00697711e+01
9.86242365e+00
1.00697670e+01
1.08551213e+01
1.17505544e+01
1.21087127e+01
1.24895085e+01
1.14200619e+01
1.04944978e+01
1.02771079e+01
1.04945016e+01
1.14200837e+01
1.24894973e+01
1.28703035e+01
1.32736799e+01
1.20151824e+01
1.09393950e+01
1.07119185e+01
1.09394042e+01
1.20151765e+01
1.32736852e+01
1.36770658e+01
1.41030708e+01
1.26403589e+01
1.14044435e+01
1.11668852e+01
1.14044369e+01
1.26403486e+01
1.41030765e+01
1.45290835e+01
1.49777264e+01
1.32957043e+01
1.18895334e+01
1.16419645e+01
1.18895257e+01
1.32957093e+01
1.49777212e+01
1.54263487e+01
1.58975822e+01
1.39812635e+01
1.23946755e+01
1.21370998e+01
1.23946835e+01
1.39812747e+01
1.58975713e+01
1.62117432e+01
1.65358885e+01
1.47252705e+01
1.31901605e+01
1.27811254e+01
1.31902085e+01
1.47252256e+01
1.65358995e+01
1.68600882e+01
1.71943860e+01
1.54992070e+01
1.40309520e+01
1.35992876e+01
1.40309304e+01
1.54992192e+01
1.71943747e+01
1.75286505e+01
1.78729619e+01
1.63034679e+01
1.49167888e+01
1.44625454e+01
1.49167979e+01
1.63034718e+01
1.78729620e+01
1.82172871e+01
1.85716496e+01
1.71378602e+01
1.58479546e+01
1.53710699e+01
1.58479579e+01
1.71378504e+01
1.85716561e+01
1.89260181e+01
1.92904647e+01
1.80023630e+01
1.68243765e+01
1.63248406e+01
1.68243719e+01
1.80023549e+01
1.92904660e+01
1.96548914e+01
2.00294176e+01
1.88971064e+01
1.78460022e+01
1.73238661e+01
1.78459883e+01
1.88971345e+01
2.00294047e+01
2.04039118e+01
2.07884429e+01
1.98221567e+01
1.89128994e+01
1.83681295e+01
1.89129030e+01
1.98221614e+01
2.07884465e+01
2.11730074e+01
2.15675714e+01
2.07771748e+01
2.00251086e+01
1.94577301e+01
2.00251104e+01
2.07771177e+01
2.15675854e+01
2.19621188e+01
2.23668201e+01
2.17622590e+01
2.11824676e+01
2.05924769e+01
2.11824998e+01
2.17622207e+01
2.23668515e+01
2.27713924e+01
2.31857634e+01
2.27783148e+01
2.23847240e+01
2.17724155e+01
8.73438952e+00
8.98641836e+00
9.25275245e+00
9.59229834e+00
9.97188545e+00
9.59709562e+00
9.24743131e+00
8.97964282e+00
9.24736434e+00
9.59720632e+00
9.97184550e+00
1.03512722e+01
1.07709257e+01
1.02689812e+01
9.80522328e+00
9.51499482e+00
9.80522286e+00
1.02689675e+01
1.07709329e+01
1.11906378e+01
1.16505527e+01
1.10008674e+01
1.04084046e+01
1.00954740e+01
1.04084075e+01
1.10008557e+01
1.16505559e+01
1.21104841e+01
1.26107136e+01
1.17932113e+01
1.10568104e+01
1.07212815e+01
1.10568091e+01
1.17932213e+01
1.26107033e+01
1.31108896e+01
1.36512600e+01
1.26459587e+01
1.17505507e+01
1.13923757e+01
1.17505544e+01
1.26459583e+01
1.36512674e+01
1.41916480e+01
1.47721835e+01
1.35589180e+01
1.24895058e+01
1.21087128e+01
1.24895007e+01
1.35589179e+01
1.47721808e+01
1.53527357e+01
1.59735394e+01
1.45322002e+01
1.32736818e+01
1.28702995e+01
1.32736817e+01
1.45322000e+01
1.59735371e+01
1.65943384e+01
1.72553017e+01
1.55658148e+01
1.41030628e+01
1.36770568e+01
1.41030617e+01
1.55658282e+01
1.72552905e+01
1.79162810e+01
1.86174587e+01
1.66596934e+01
1.49777407e+01
1.45290968e+01
1.49777472e+01
1.66596680e+01
1.86174736e+01
1.93186701e+01
2.00601547e+01
1.78138105e+01
1.58975995e+01
1.54263789e+01
1.58975992e+01
1.78137806e+01
2.00601644e+01
2.02454687e+01
2.04333982e+01
1.83466350e+01
1.65359100e+01
1.62117245e+01
1.65359128e+01
1.83466332e+01
2.04334046e+01
2.06212274e+01
2.08116666e+01
1.88895261e+01
1.71943855e+01
1.68601180e+01
1.71943821e+01
1.88895223e+01
2.08116727e+01
2.10020204e+01
2.11949589e+01
1.94424969e+01
1.78729467e+01
1.75286354e+01
1.78729441e+01
1.94425046e+01
2.11949572e+01
2.13878246e+01
2.15832472e+01
2.00055578e+01
1.85716256e+01
1.82172605e+01
1.85716311e+01
2.00055621e+01
2.15832436e+01
2.17786349e+01
2.19765462e+01
2.05786294e+01
1.92904589e+01
1.89260223e+01
1.92904669e+01
2.05786214e+01
2.19765464e+01
2.21744620e+01
2.23749007e+01
2.11616404e+01
2.00294290e+01
1.96549282e+01
2.00294282e+01
2.11616300e+01
2.23749046e+01
2.25753226e+01
2.27783142e+01
2.17546555e+01
2.07884555e+01
2.04039153e+01
2.07884518e+01
2.17546551e+01
2.27783140e+01
2.29812799e+01
2.31867030e+01
2.23578522e+01
2.15675646e+01
2.11729577e+01
2.15675509e+01
2.23578856e+01
2.31867018e+01
2.33922408e+01
2.36000537e+01
2.29712859e+01
2.23668035e+01
2.19621299e+01
2.23668253e+01
2.29712538e+01
2.36001016e+01
2.38081740e+01
2.40180352e+01
2.35953525e+01
2.31857081e+01
2.27713604e+01
9.25276791e+00
9.52044430e+00
9.80253069e+00
1.01106353e+01
1.04494391e+01
1.02037499e+01
9.97189408e+00
9.59229163e+00
9.97184406e+00
1.02039199e+01
1.04493804e+01
1.07880278e+01
1.11573949e+01
1.09582409e+01
1.07709266e+01
1.03512820e+01
1.07709363e+01
1.09582298e+01
1.11574020e+01
1.15268191e+01
1.19270421e+01
1.17827897e+01
1.16505539e+01
1.11906314e+01
1.16505549e+01
1.17827960e+01
1.19270403e+01
1.23272442e+01
1.27582807e+01
1.26778702e+01
1.26107132e+01
1.21104858e+01
1.26107035e+01
1.26778913e+01
1.27582721e+01
1.31893485e+01
1.36511988e+01
1.36434027e+01
1.36512497e+01
1.31109068e+01
1.36512582e+01
1.36433809e+01
1.36512053e+01
1.41130685e+01
1.46056717e+01
1.46791863e+01
1.47721864e+01
1.41916435e+01
1.47721808e+01
1.46791936e+01
1.46056671e+01
1.50982648e+01
1.56216385e+01
1.57853192e+01
1.59735374e+01
1.53527417e+01
1.59735435e+01
1.57853099e+01
1.56216448e+01
1.61450153e+01
1.66992031e+01
1.69618450e+01
1.72553145e+01
1.65943231e+01
1.72553106e+01
1.69618567e+01
1.66992022e+01
1.72533733e+01
1.78383279e+01
1.82087632e+01
1.86174696e+01
1.79162845e+01
1.86174662e+01
1.82087548e+01
1.78383248e+01
1.84232969e+01
1.90390487e+01
1.95259962e+01
2.00601367e+01
1.93186772e+01
2.00601355e+01
1.95259983e+01
1.90390488e+01
1.93029396e+01
1.95724949e+01
1.99837518e+01
2.04333883e+01
2.02455128e+01
2.04333888e+01
1.99837535e+01
1.95724955e+01
1.98420499e+01
2.01172684e+01
2.04490637e+01
2.08116602e+01
2.06212663e+01
2.08116605e+01
2.04490678e+01
2.01172665e+01
2.03924896e+01
2.06733601e+01
2.09219124e+01
2.11949522e+01
2.10020420e+01
2.11949522e+01
2.09219188e+01
2.06733575e+01
2.09542371e+01
2.12407490e+01
2.14022805e+01
2.15832487e+01
2.13878332e+01
2.15832479e+01
2.14022840e+01
2.12407490e+01
2.15272730e+01
2.18194379e+01
2.18901527e+01
2.19765563e+01
2.17786422e+01
2.19765576e+01
2.18901471e+01
2.18194424e+01
2.21116103e+01
2.24094338e+01
2.23855401e+01
2.23749034e+01
2.21744778e+01
2.23749069e+01
2.23855309e+01
2.24094356e+01
2.27072488e+01
2.30107506e+01
2.28884788e+01
2.27782897e+01
2.25753430e+01
2.27782924e+01
2.28884738e+01
2.30107490e+01
2.33142371e+01
2.36233774e+01
2.33990308e+01
2.31866982e+01
2.29812399e+01
2.31866937e+01
2.33990505e+01
2.36233648e+01
2.39325103e+01
2.42472851e+01
2.39172020e+01
2.36000749e+01
2.33921569e+01