# vtk DataFile Version 3.0 
Date: 3/21/2016   Time: 14:2
ASCII 
DATASET UNSTRUCTURED_GRID 
 
POINTS 896 float 
0.929928 0.000000 0.000000 
0.964964 0.000000 0.000000 
1.000000 0.000000 0.000000 
1.000000 0.037936 0.000000 
1.000000 0.075873 0.000000 
0.984088 0.075873 0.000000 
0.968175 0.075873 0.000000 
0.949051 0.037936 0.000000 
0.784284 0.000000 0.000000 
0.831217 0.000000 0.000000 
0.878150 0.000000 0.000000 
0.857031 0.025243 0.000000 
0.835913 0.050486 0.000000 
0.810099 0.047531 0.000000 
0.784284 0.044576 0.000000 
0.784284 0.022288 0.000000 
0.723686 0.000000 0.000000 
0.753985 0.000000 0.000000 
0.784284 0.000000 0.000000 
0.784284 0.022288 0.000000 
0.784284 0.044576 0.000000 
0.753985 0.064166 0.000000 
0.723686 0.083757 0.000000 
0.723686 0.041878 0.000000 
0.689151 0.000000 0.000000 
0.706419 0.000000 0.000000 
0.723686 0.000000 0.000000 
0.723686 0.041878 0.000000 
0.723686 0.083757 0.000000 
0.718729 0.089429 0.000000 
0.713772 0.095101 0.000000 
0.701461 0.092792 0.000000 
0.689151 0.090482 0.000000 
0.689151 0.045241 0.000000 
0.614296 0.000000 0.000000 
0.651723 0.000000 0.000000 
0.689151 0.000000 0.000000 
0.689151 0.045241 0.000000 
0.689151 0.090482 0.000000 
0.651723 0.087890 0.000000 
0.614296 0.085298 0.000000 
0.614296 0.042649 0.000000 
0.424986 0.029193 0.000000 
0.424986 0.014597 0.000000 
0.424986 0.000000 0.000000 
0.519641 0.000000 0.000000 
0.614296 0.000000 0.000000 
0.614296 0.042649 0.000000 
0.614296 0.085298 0.000000 
0.580392 0.107350 0.000000 
0.546489 0.129401 0.000000 
0.522694 0.128201 0.000000 
0.498899 0.127000 0.000000 
0.473919 0.112687 0.000000 
0.448939 0.098373 0.000000 
0.436962 0.063783 0.000000 
0.207535 0.000000 0.000000 
0.316261 0.000000 0.000000 
0.424986 0.000000 0.000000 
0.424986 0.014597 0.000000 
0.424986 0.029193 0.000000 
0.316261 0.040535 0.000000 
0.207535 0.051876 0.000000 
0.207535 0.025938 0.000000 
0.057556 0.000000 0.000000 
0.132545 0.000000 0.000000 
0.207535 0.000000 0.000000 
0.207535 0.025938 0.000000 
0.207535 0.051876 0.000000 
0.200985 0.067049 0.000000 
0.194434 0.082222 0.000000 
0.154334 0.098403 0.000000 
0.114234 0.114583 0.000000 
0.085895 0.088183 0.000000 
0.057556 0.061784 0.000000 
0.057556 0.030892 0.000000 
0.000000 0.000000 0.000000 
0.028778 0.000000 0.000000 
0.057556 0.000000 0.000000 
0.057556 0.030892 0.000000 
0.057556 0.061784 0.000000 
0.028778 0.061784 0.000000 
0.000000 0.061784 0.000000 
0.000000 0.030892 0.000000 
0.968175 0.075873 0.000000 
0.984088 0.075873 0.000000 
1.000000 0.075873 0.000000 
1.000000 0.125996 0.000000 
1.000000 0.176120 0.000000 
0.989860 0.176120 0.000000 
0.979719 0.176120 0.000000 
0.951790 0.151947 0.000000 
0.923860 0.127774 0.000000 
0.946017 0.101823 0.000000 
0.835913 0.050486 0.000000 
0.857031 0.025243 0.000000 
0.878150 0.000000 0.000000 
0.904039 0.000000 0.000000 
0.929928 0.000000 0.000000 
0.949051 0.037936 0.000000 
0.968175 0.075873 0.000000 
0.946017 0.101823 0.000000 
0.923860 0.127774 0.000000 
0.921152 0.129101 0.000000 
0.918443 0.130429 0.000000 
0.896570 0.128495 0.000000 
0.874697 0.126561 0.000000 
0.855305 0.088524 0.000000 
0.713772 0.095101 0.000000 
0.718729 0.089429 0.000000 
0.723686 0.083757 0.000000 
0.753985 0.064166 0.000000 
0.784284 0.044576 0.000000 
0.810099 0.047531 0.000000 
0.835913 0.050486 0.000000 
0.855305 0.088524 0.000000 
0.874697 0.126561 0.000000 
0.828969 0.156128 0.000000 
0.783241 0.185694 0.000000 
0.775277 0.187101 0.000000 
0.767313 0.188508 0.000000 
0.740542 0.141805 0.000000 
0.546489 0.129401 0.000000 
0.580392 0.107350 0.000000 
0.614296 0.085298 0.000000 
0.651723 0.087890 0.000000 
0.689151 0.090482 0.000000 
0.701461 0.092792 0.000000 
0.713772 0.095101 0.000000 
0.740542 0.141805 0.000000 
0.767313 0.188508 0.000000 
0.754760 0.214973 0.000000 
0.742207 0.241438 0.000000 
0.683159 0.248227 0.000000 
0.624110 0.255015 0.000000 
0.585300 0.192208 0.000000 
0.416045 0.121458 0.000000 
0.432492 0.109916 0.000000 
0.448939 0.098373 0.000000 
0.473919 0.112687 0.000000 
0.498899 0.127000 0.000000 
0.482727 0.211961 0.000000 
0.466556 0.296921 0.000000 
0.442392 0.299429 0.000000 
0.418227 0.301937 0.000000 
0.398193 0.279512 0.000000 
0.378158 0.257086 0.000000 
0.374512 0.242197 0.000000 
0.370865 0.227308 0.000000 
0.393455 0.174383 0.000000 
0.265790 0.154449 0.000000 
0.340917 0.137954 0.000000 
0.416045 0.121458 0.000000 
0.393455 0.174383 0.000000 
0.370865 0.227308 0.000000 
0.366778 0.227372 0.000000 
0.362691 0.227435 0.000000 
0.313629 0.210486 0.000000 
0.264567 0.193538 0.000000 
0.265178 0.173994 0.000000 
0.194434 0.082222 0.000000 
0.200985 0.067049 0.000000 
0.207535 0.051876 0.000000 
0.316261 0.040535 0.000000 
0.424986 0.029193 0.000000 
0.436962 0.063783 0.000000 
0.448939 0.098373 0.000000 
0.432492 0.109916 0.000000 
0.416045 0.121458 0.000000 
0.340917 0.137954 0.000000 
0.265790 0.154449 0.000000 
0.230112 0.118336 0.000000 
0.103073 0.144340 0.000000 
0.108654 0.129462 0.000000 
0.114234 0.114583 0.000000 
0.154334 0.098403 0.000000 
0.194434 0.082222 0.000000 
0.230112 0.118336 0.000000 
0.265790 0.154449 0.000000 
0.265178 0.173994 0.000000 
0.264567 0.193538 0.000000 
0.264269 0.194659 0.000000 
0.263972 0.195779 0.000000 
0.237941 0.220941 0.000000 
0.211910 0.246103 0.000000 
0.157492 0.195221 0.000000 
0.000000 0.061784 0.000000 
0.028778 0.061784 0.000000 
0.057556 0.061784 0.000000 
0.085895 0.088183 0.000000 
0.114234 0.114583 0.000000 
0.108654 0.129462 0.000000 
0.103073 0.144340 0.000000 
0.101594 0.146541 0.000000 
0.100115 0.148741 0.000000 
0.084033 0.163508 0.000000 
0.067950 0.178275 0.000000 
0.033975 0.178275 0.000000 
0.000000 0.178275 0.000000 
0.000000 0.120029 0.000000 
0.979719 0.176120 0.000000 
0.989860 0.176120 0.000000 
1.000000 0.176120 0.000000 
1.000000 0.198622 0.000000 
1.000000 0.221123 0.000000 
0.989422 0.221123 0.000000 
0.978845 0.221123 0.000000 
0.979282 0.198622 0.000000 
0.918443 0.130429 0.000000 
0.921152 0.129101 0.000000 
0.923860 0.127774 0.000000 
0.951790 0.151947 0.000000 
0.979719 0.176120 0.000000 
0.979282 0.198622 0.000000 
0.978845 0.221123 0.000000 
0.950647 0.248937 0.000000 
0.922450 0.276752 0.000000 
0.919152 0.270273 0.000000 
0.915853 0.263794 0.000000 
0.917148 0.197112 0.000000 
0.874697 0.126561 0.000000 
0.896570 0.128495 0.000000 
0.918443 0.130429 0.000000 
0.917148 0.197112 0.000000 
0.915853 0.263794 0.000000 
0.849547 0.224744 0.000000 
0.783241 0.185694 0.000000 
0.828969 0.156128 0.000000 
0.498899 0.127000 0.000000 
0.522694 0.128201 0.000000 
0.546489 0.129401 0.000000 
0.585300 0.192208 0.000000 
0.624110 0.255015 0.000000 
0.619752 0.265350 0.000000 
0.615393 0.275685 0.000000 
0.590810 0.298381 0.000000 
0.566227 0.321077 0.000000 
0.541070 0.333402 0.000000 
0.515912 0.345728 0.000000 
0.491234 0.321325 0.000000 
0.466556 0.296921 0.000000 
0.482727 0.211961 0.000000 
0.339391 0.275229 0.000000 
0.358775 0.266157 0.000000 
0.378158 0.257086 0.000000 
0.398193 0.279512 0.000000 
0.418227 0.301937 0.000000 
0.415196 0.304977 0.000000 
0.412164 0.308017 0.000000 
0.378618 0.316097 0.000000 
0.345072 0.324176 0.000000 
0.338097 0.316369 0.000000 
0.331122 0.308561 0.000000 
0.335257 0.291895 0.000000 
0.362691 0.227435 0.000000 
0.366778 0.227372 0.000000 
0.370865 0.227308 0.000000 
0.374512 0.242197 0.000000 
0.378158 0.257086 0.000000 
0.358775 0.266157 0.000000 
0.339391 0.275229 0.000000 
0.320759 0.265505 0.000000 
0.302126 0.255781 0.000000 
0.332409 0.241608 0.000000 
0.263972 0.195779 0.000000 
0.264269 0.194659 0.000000 
0.264567 0.193538 0.000000 
0.313629 0.210486 0.000000 
0.362691 0.227435 0.000000 
0.332409 0.241608 0.000000 
0.302126 0.255781 0.000000 
0.299287 0.255582 0.000000 
0.296448 0.255382 0.000000 
0.280210 0.225581 0.000000 
0.100115 0.148741 0.000000 
0.101594 0.146541 0.000000 
0.103073 0.144340 0.000000 
0.157492 0.195221 0.000000 
0.211910 0.246103 0.000000 
0.205307 0.265844 0.000000 
0.198703 0.285585 0.000000 
0.188935 0.286973 0.000000 
0.179166 0.288361 0.000000 
0.167872 0.285839 0.000000 
0.156577 0.283316 0.000000 
0.128346 0.216029 0.000000 
0.000000 0.178275 0.000000 
0.033975 0.178275 0.000000 
0.067950 0.178275 0.000000 
0.063236 0.209435 0.000000 
0.058522 0.240595 0.000000 
0.056141 0.242735 0.000000 
0.053761 0.244875 0.000000 
0.026880 0.244875 0.000000 
0.000000 0.244875 0.000000 
0.000000 0.211575 0.000000 
0.978845 0.221123 0.000000 
0.989422 0.221123 0.000000 
1.000000 0.221123 0.000000 
1.000000 0.253869 0.000000 
1.000000 0.286616 0.000000 
0.961801 0.286616 0.000000 
0.923602 0.286616 0.000000 
0.923026 0.281684 0.000000 
0.922450 0.276752 0.000000 
0.950647 0.248937 0.000000 
0.742207 0.241438 0.000000 
0.754760 0.214973 0.000000 
0.767313 0.188508 0.000000 
0.775277 0.187101 0.000000 
0.783241 0.185694 0.000000 
0.849547 0.224744 0.000000 
0.915853 0.263794 0.000000 
0.919152 0.270273 0.000000 
0.922450 0.276752 0.000000 
0.923026 0.281684 0.000000 
0.923602 0.286616 0.000000 
0.913052 0.310580 0.000000 
0.902501 0.334543 0.000000 
0.828742 0.304854 0.000000 
0.754983 0.275164 0.000000 
0.748595 0.258301 0.000000 
0.615393 0.275685 0.000000 
0.619752 0.265350 0.000000 
0.624110 0.255015 0.000000 
0.683159 0.248227 0.000000 
0.742207 0.241438 0.000000 
0.748595 0.258301 0.000000 
0.754983 0.275164 0.000000 
0.743775 0.332577 0.000000 
0.732568 0.389991 0.000000 
0.707460 0.385982 0.000000 
0.682352 0.381973 0.000000 
0.648872 0.328829 0.000000 
0.345072 0.324176 0.000000 
0.378618 0.316097 0.000000 
0.412164 0.308017 0.000000 
0.390651 0.383691 0.000000 
0.369138 0.459365 0.000000 
0.347834 0.443018 0.000000 
0.326529 0.426671 0.000000 
0.322047 0.409265 0.000000 
0.317564 0.391859 0.000000 
0.331318 0.358017 0.000000 
0.255086 0.321925 0.000000 
0.269067 0.310554 0.000000 
0.283048 0.299183 0.000000 
0.307085 0.303872 0.000000 
0.331122 0.308561 0.000000 
0.338097 0.316369 0.000000 
0.345072 0.324176 0.000000 
0.331318 0.358017 0.000000 
0.317564 0.391859 0.000000 
[...]
CELL_DATA 81
FIELD FieldData 1
material 1 81 int
1
1
1
1
1
1
1
1
1
1
1
1
1
1
1
1
1
1
1
1
1
1
1
1
1
1
1
1
1
1
1
1
1
1
1
1
1
1
1
1
1
1
1
1
1
1
1
1
1
1
1
1
1
1
1
1
1
1
1
1
1
1
1
1
1
1
1
1
1
1
1
1
1
1
1
1
1
1
1
1
1
POINT_DATA 896 SCALARS flux_g1 double 
LOOKUP_TABLE   default 
1.75623314e+01
1.81933720e+01
1.88513358e+01
1.93307913e+01
1.98411844e+01
1.95349087e+01
1.92336764e+01
1.83659182e+01
1.50792356e+01
1.58415373e+01
1.66495626e+01
1.65819090e+01
1.65290334e+01
1.60512679e+01
1.55931356e+01
1.53286042e+01
1.41229506e+01
1.45909037e+01
1.50785605e+01
1.53299727e+01
1.55929519e+01
1.53256734e+01
1.50765415e+01
1.45782693e+01
1.35988359e+01
1.38569708e+01
1.41229693e+01
1.45784894e+01
1.50764498e+01
1.50645555e+01
1.50540835e+01
1.48310537e+01
1.46136589e+01
1.40820907e+01
1.25171193e+01
1.30412982e+01
1.35990180e+01
1.40815209e+01
1.46135397e+01
1.40021682e+01
1.34300305e+01
1.29517012e+01
1.03661560e+01
1.02238735e+01
1.00934227e+01
1.12109471e+01
1.25200945e+01
1.29451840e+01
1.34311363e+01
1.31837691e+01
1.29646128e+01
1.26129368e+01
1.22887577e+01
1.17931937e+01
1.13364372e+01
1.08245554e+01
7.86072223e+00
8.86119064e+00
1.00907309e+01
1.02272489e+01
1.03618291e+01
9.19976762e+00
8.27614003e+00
8.06182787e+00
6.67036596e+00
7.20463436e+00
7.86426592e+00
8.06080930e+00
8.27833524e+00
8.33836798e+00
8.41058078e+00
8.17728970e+00
7.97453389e+00
7.51150029e+00
7.10505096e+00
6.87202409e+00
6.28405988e+00
6.46641947e+00
6.66861188e+00
6.87527555e+00
7.10527575e+00
6.89189109e+00
6.69851206e+00
6.48026258e+00
1.92332458e+01
1.95348501e+01
1.98409727e+01
2.05254135e+01
2.12605028e+01
2.10589753e+01
2.08588130e+01
1.99548160e+01
1.91021548e+01
1.91599746e+01
1.65290433e+01
1.65823994e+01
1.66492996e+01
1.70974824e+01
1.75623120e+01
1.83660586e+01
1.92337831e+01
1.91602079e+01
1.91020412e+01
1.90668460e+01
1.90366663e+01
1.86040246e+01
1.81822097e+01
1.73235477e+01
1.50540401e+01
1.50651797e+01
1.50766164e+01
1.53261546e+01
1.55929528e+01
1.60520667e+01
1.65287914e+01
1.73236145e+01
1.81823699e+01
1.77518126e+01
1.73615515e+01
1.72353400e+01
1.71258470e+01
1.60383303e+01
1.29628617e+01
1.31858746e+01
1.34306083e+01
1.40009824e+01
1.46151268e+01
1.48291193e+01
1.50549180e+01
1.60389852e+01
1.71257218e+01
1.72678668e+01
1.74221100e+01
1.65071181e+01
1.56701039e+01
1.42169469e+01
1.11655728e+01
1.12433918e+01
1.13358517e+01
1.17953311e+01
1.22861582e+01
1.30047673e+01
1.38779853e+01
1.35730768e+01
1.32798187e+01
1.27259583e+01
1.22037344e+01
1.19824967e+01
1.17658731e+01
1.14389788e+01
9.78294491e+00
1.04163262e+01
1.11661024e+01
1.14390765e+01
1.17663241e+01
1.17272913e+01
1.16675441e+01
1.08742218e+01
1.01655930e+01
9.97032538e+00
8.40907119e+00
8.34163702e+00
8.27712924e+00
9.19521550e+00
1.03651022e+01
1.08244886e+01
1.13375945e+01
1.12418036e+01
1.11655007e+01
1.04171214e+01
9.78279959e+00
9.04729205e+00
8.13375778e+00
8.05292311e+00
7.97365382e+00
8.17760331e+00
8.41066956e+00
9.04798444e+00
9.78368976e+00
9.96960429e+00
1.01649526e+01
1.01731354e+01
1.01817105e+01
1.01626360e+01
1.01583796e+01
9.04292682e+00
6.69979099e+00
6.89034352e+00
7.10579106e+00
7.51061113e+00
7.97488870e+00
8.05326312e+00
8.13441004e+00
8.14175628e+00
8.14835715e+00
8.14015577e+00
8.14063427e+00
7.85694441e+00
7.60788365e+00
7.11634350e+00
2.08589236e+01
2.10587453e+01
2.12606601e+01
2.15940196e+01
2.19379693e+01
2.17242528e+01
2.15133971e+01
2.11798058e+01
1.90375152e+01
1.90663473e+01
1.91024208e+01
1.99549290e+01
2.08591748e+01
2.11794360e+01
2.15135723e+01
2.13732049e+01
2.12536041e+01
2.10886496e+01
2.09247662e+01
1.99265855e+01
1.81825728e+01
1.86030538e+01
1.90375372e+01
1.99266484e+01
2.09249995e+01
1.90363415e+01
1.73613054e+01
1.77518667e+01
1.22861321e+01
1.26157350e+01
1.29631047e+01
1.42174796e+01
1.56698218e+01
1.57413980e+01
1.58123816e+01
1.57336893e+01
1.56709226e+01
1.54530406e+01
1.52469116e+01
1.45388198e+01
1.38780151e+01
1.30051304e+01
1.19376519e+01
1.20665038e+01
1.22047272e+01
1.27246203e+01
1.32802523e+01
1.32704442e+01
1.32760640e+01
1.29291619e+01
1.26052416e+01
1.24191187e+01
1.22369260e+01
1.20845056e+01
1.16671037e+01
1.17275198e+01
1.17663961e+01
1.19807642e+01
1.22042266e+01
1.20671596e+01
1.19376999e+01
1.15949677e+01
1.12657493e+01
1.14593613e+01
1.01823638e+01
1.01600450e+01
1.01657617e+01
1.08740222e+01
1.16674439e+01
1.14589251e+01
1.12658680e+01
1.12289080e+01
1.11949809e+01
1.06687755e+01
8.14761389e+00
8.14367556e+00
8.13398287e+00
9.04270510e+00
1.01585080e+01
1.03011269e+01
1.04508878e+01
1.03621874e+01
1.02764830e+01
1.01302824e+01
9.99017827e+00
8.97686479e+00
7.60634790e+00
7.85920167e+00
8.14043789e+00
8.38032424e+00
8.64109760e+00
8.64733652e+00
8.64182943e+00
8.41303947e+00
8.20189112e+00
7.89126261e+00
2.15132799e+01
2.17244488e+01
2.19379769e+01
2.24421083e+01
2.29699008e+01
2.21818885e+01
2.14307855e+01
2.13431893e+01
2.12534536e+01
2.13736025e+01
1.74224361e+01
1.72676130e+01
1.71256794e+01
1.72354979e+01
1.73613962e+01
1.90363893e+01
2.09255116e+01
2.10873983e+01
2.12547030e+01
2.13429767e+01
2.14305136e+01
2.15998158e+01
2.17783524e+01
1.98436254e+01
1.81236931e+01
1.77664849e+01
1.58128263e+01
1.57407243e+01
1.56703179e+01
1.65063808e+01
1.74222879e+01
1.77670909e+01
1.81235013e+01
1.87599409e+01
1.94656752e+01
1.89521106e+01
1.84580624e+01
1.70633007e+01
1.26056822e+01
1.29287921e+01
1.32762007e+01
1.39532576e+01
1.47446945e+01
1.42150208e+01
1.37119710e+01
1.34140179e+01
1.31273395e+01
1.28533515e+01
1.14920554e+01
1.15169432e+01
1.15456254e+01
1.18826360e+01
1.22367559e+01
1.24192796e+01
1.26050802e+01
1.28541673e+01
1.31270292e+01
1.22673440e+01
1.11947639e+01
1.12291675e+01
1.12656700e+01
1.15948304e+01
1.19377847e+01
1.20845871e+01
1.22370670e+01
1.18824351e+01
1.15456579e+01
1.13653489e+01
1.01589486e+01
1.01617093e+01
1.01821933e+01
1.06680606e+01
1.11948035e+01
1.13658638e+01
1.15457026e+01
1.15170138e+01
1.14921016e+01
1.13614125e+01
1.12314022e+01
1.08303177e+01
1.04512674e+01
1.03019142e+01
8.14062080e+00
8.14137879e+00
8.14786446e+00
8.97698944e+00
9.99005257e+00
9.81485017e+00
9.65178647e+00
9.12016432e+00
8.64128203e+00
8.37978826e+00
8.20171934e+00
8.41341226e+00
8.64189331e+00
8.68006866e+00
8.72033410e+00
8.55656618e+00
8.40208720e+00
8.30031967e+00
2.14309207e+01
2.21813623e+01
2.29702882e+01
2.36763800e+01
2.44267742e+01
2.34206342e+01
2.24712719e+01
2.21191271e+01
2.17785232e+01
2.15989250e+01
1.81241079e+01
1.98432951e+01
2.17786872e+01
2.21192025e+01
2.24712493e+01
2.30380905e+01
2.36788937e+01
2.21971526e+01
2.08320448e+01
2.01344901e+01
1.94655921e+01
1.87591615e+01
1.56707688e+01
1.57338871e+01
1.58125920e+01
1.70635927e+01
1.84579898e+01
1.82409157e+01
1.80294754e+01
1.67935760e+01
1.32760765e+01
1.32697973e+01
1.32804395e+01
1.35725786e+01
1.38786184e+01
1.45389752e+01
1.52468985e+01
1.53398693e+01
1.54481630e+01
1.52139026e+01
1.50796055e+01
1.49114810e+01
1.47445544e+01
1.39529999e+01
1.12316155e+01
1.13609991e+01
1.14921581e+01
1.22678494e+01
1.31266818e+01
1.34146707e+01
1.37112735e+01
1.28890119e+01
1.21717638e+01
1.21166765e+01
1.20566819e+01
1.16174155e+01
1.02764567e+01
1.03614747e+01
1.04517448e+01
1.08303721e+01
1.12313904e+01
1.16174778e+01
1.20569548e+01
1.13799088e+01
1.07596257e+01
1.05063290e+01
9.65177902e+00
9.81467131e+00
9.98970220e+00
1.01308862e+01
1.02761805e+01
1.05060977e+01
1.07594286e+01
1.03548943e+01
9.98215064e+00
9.97700857e+00
9.96421858e+00
9.80284934e+00
8.86159982e+00
8.78971883e+00
8.72035907e+00
8.68040203e+00
8.64180131e+00
8.64806695e+00
8.64101139e+00
9.12027111e+00
9.65186834e+00
9.80305804e+00
9.96432352e+00
9.67588830e+00
9.40894182e+00
9.12662660e+00
8.40207561e+00
8.55653387e+00
8.72030974e+00
8.78958461e+00
8.86145058e+00
8.73475640e+00
8.61316772e+00
8.50626757e+00
2.24712925e+01
2.34207018e+01
2.44264352e+01
2.55006796e+01
2.66598081e+01
2.51255578e+01
2.37100173e+01
2.37218378e+01
2.36780154e+01
2.30373688e+01
1.80298021e+01
1.82405130e+01
1.84581267e+01
1.89520743e+01
1.94656274e+01
2.01331624e+01
2.08332077e+01
2.00598136e+01
1.93820409e+01
1.89994649e+01
1.86215159e+01
1.83407363e+01
1.80704156e+01
1.80381651e+01
1.54483693e+01
1.53394485e+01
1.52472662e+01
1.54531807e+01
1.56703887e+01
1.67941171e+01
1.80294120e+01
1.80389819e+01
1.80699812e+01
1.76688339e+01
1.72855133e+01
1.63295290e+01
1.54478424e+01
1.63298112e+01
1.72849126e+01
1.63847163e+01
1.56207885e+01
1.54403822e+01
1.52073210e+01
1.51508992e+01
1.50797251e+01
1.52145890e+01
1.21881069e+01
1.21773018e+01
1.21717490e+01
1.28890326e+01
1.37107927e+01
1.42153795e+01
1.47437687e+01
1.49117573e+01
1.50795699e+01
1.51465548e+01
1.52110941e+01
1.53262081e+01
1.54815389e+01
1.39523680e+01
1.26386553e+01
1.24023475e+01
1.30891802e+01
1.28517587e+01
1.26390229e+01
1.39513928e+01
1.54818309e+01
1.57484256e+01
1.60258062e+01
1.44342629e+01
9.98224883e+00
1.03548950e+01
1.07596499e+01
1.13794296e+01
1.20559625e+01
1.21195259e+01
1.21689024e+01
1.21806848e+01
1.21876997e+01
1.15721691e+01
1.10161467e+01
1.04759336e+01
9.37718849e+00
9.39182397e+00
9.40878434e+00
9.67630376e+00
9.96416671e+00
9.97586796e+00
9.98214788e+00
1.04757736e+01
1.10160267e+01
1.09932243e+01
1.09703522e+01
1.05448484e+01
1.01539356e+01
9.75285295e+00
8.61335687e+00
8.73406857e+00
8.86158075e+00
9.12671102e+00
9.40899987e+00
9.39128580e+00
9.37745111e+00
9.35759060e+00
9.37388200e+00
8.97979296e+00
2.37109309e+01
2.51203464e+01
2.66622721e+01
2.86783166e+01
3.09347310e+01
3.03851230e+01
2.98477017e+01
2.76407117e+01
2.56274440e+01
2.46203639e+01
1.93838426e+01
2.00607962e+01
2.08316574e+01
2.21967155e+01
2.36769556e+01
2.37131050e+01
2.37100965e+01
2.46221252e+01
2.56270602e+01
2.50335137e+01
2.45006203e+01
2.17485825e+01
1.72850430e+01
1.76702710e+01
1.80678124e+01
1.83413077e+01
1.86170980e+01
1.83713735e+01
1.81828391e+01
1.68346978e+01
1.56212153e+01
1.63854650e+01
1.54818453e+01
1.53259741e+01
1.52097074e+01
1.54384114e+01
1.56205239e+01
1.68355024e+01
1.81829038e+01
1.90480652e+01
1.99766023e+01
1.86875020e+01
1.75456541e+01
1.68362911e+01
1.61644332e+01
1.61005774e+01
1.60266881e+01
1.57489344e+01
1.59723535e+01
1.60415459e+01
1.61643863e+01
1.68363769e+01
1.75465426e+01
1.82245941e+01
1.89445827e+01
1.83561138e+01
1.78156211e+01
1.73023963e+01
1.68130689e+01
1.63885712e+01
1.30892156e+01
1.44349625e+01
1.60256938e+01
1.61013117e+01
1.61646033e+01
1.60415710e+01
1.59723839e+01
1.43571276e+01
1.29980444e+01
1.30195108e+01
1.09696092e+01
1.09926583e+01
1.10170326e+01
1.15710184e+01
1.21886951e+01
1.24019605e+01
1.26393426e+01
1.28505364e+01
1.30886870e+01
1.30181986e+01
1.30003143e+01
1.28062016e+01
1.26312478e+01
1.23860037e+01
1.21578816e+01
1.15056689e+01
1.05370134e+01
1.03410216e+01
1.01541262e+01
1.05437230e+01
1.09699550e+01
1.15056366e+01
1.21570612e+01
1.13059170e+01
9.37372469e+00
9.35753003e+00
9.37737203e+00
9.75317453e+00
1.01536366e+01
1.03407399e+01
1.05379920e+01
9.93096701e+00
2.98458479e+01
3.03827457e+01
3.09338576e+01
3.32270225e+01
3.57371382e+01
3.55297957e+01
3.53261825e+01
3.45445333e+01
3.37906465e+01
3.33782898e+01
3.29370479e+01
3.13111343e+01
2.45009845e+01
2.50353658e+01
2.56268807e+01
2.76396463e+01
2.98496505e+01
3.13015665e+01
3.29396430e+01
3.06932743e+01
2.87609610e+01
2.70210675e+01
2.54091726e+01
2.51758729e+01
2.49869436e+01
2.47018565e+01
1.81822714e+01
1.83717149e+01
1.86173402e+01
1.90044349e+01
1.93823214e+01
2.17500771e+01
2.45000826e+01
2.47027707e+01
2.49895352e+01
2.23078018e+01
1.99764405e+01
1.90504274e+01
1.89450799e+01
1.82237661e+01
1.75459831e+01
1.86876541e+01
1.99764018e+01
2.23082583e+01
2.49884495e+01
2.51774237e+01
2.54086589e+01
2.36108427e+01
2.20709252e+01
2.04283783e+01
1.78150657e+01
1.83597969e+01
1.89421243e+01
2.04335752e+01
2.20697706e+01
2.20089754e+01
2.19656723e+01
2.16099144e+01
2.12679575e+01
1.94403757e+01
1.74398772e+01
1.71190914e+01
1.68128326e+01
1.73030979e+01
1.78150096e+01
1.94405372e+01
2.12677062e+01
2.12566564e+01
2.12510811e+01
1.92134217e+01
1.75452671e+01
1.74762199e+01
1.74394503e+01
1.92146429e+01
2.12508374e+01
2.12054534e+01
2.11613629e+01
2.10677536e+01
2.09810542e+01
2.07395471e+01
2.05110642e+01
1.94300441e+01
1.84468504e+01
1.79841976e+01
1.26295376e+01
1.28070671e+01
1.29977311e+01
1.43584477e+01
1.59723100e+01
1.63869903e+01
1.68135812e+01
1.71183362e+01
1.74390430e+01
1.74749188e+01
1.75456466e+01
1.56749806e+01
1.40668023e+01
1.33191777e+01
1.40665125e+01
1.56765112e+01
1.75462093e+01
1.79796309e+01
1.84508283e+01
1.84403346e+01
1.85637284e+01
1.79741319e+01
1.74414858e+01
1.56544920e+01
3.53257643e+01
3.55305286e+01
3.57372489e+01
3.67034803e+01
3.76990575e+01
3.74876382e+01
3.72773056e+01
3.62841656e+01
3.37915612e+01
3.45486627e+01
3.53265890e+01
3.62829713e+01
3.72776884e+01
3.66198554e+01
3.59803709e+01
3.48625341e+01
2.87551680e+01
3.07010754e+01
3.29353800e+01
3.33786273e+01
3.37924335e+01
3.48543188e+01
3.59794907e+01
3.27631183e+01
2.98983542e+01
2.93214882e+01
2.19726815e+01
2.20008666e+01
2.20716037e+01
2.36116693e+01
2.54078861e+01
2.70181680e+01
2.87588491e+01
2.93180412e+01
2.99036589e+01
2.68661201e+01
2.42874408e+01
2.30769092e+01
2.11612661e+01
2.12050898e+01
2.12513341e+01
2.12607480e+01
2.12692484e+01
2.16121076e+01
2.19695193e+01
2.30891663e+01
2.42823784e+01
2.36222598e+01
2.29998234e+01
2.20561295e+01
2.09805892e+01
2.10696063e+01
2.11610709e+01
2.20568625e+01
2.29997188e+01
2.27900063e+01
2.25857449e+01
2.17640178e+01
2.05108650e+01
2.07395210e+01
2.09805749e+01
2.17635814e+01
2.25858366e+01
2.22012815e+01
2.18332980e+01
2.11577547e+01
1.85619585e+01
1.84514146e+01
1.84469284e+01
1.94307468e+01
2.05101126e+01
2.11580391e+01
2.18335354e+01
2.08804253e+01
2.00137606e+01
1.92660287e+01
1.74405022e+01
1.79786328e+01
1.85620135e+01
1.92689388e+01
2.00147655e+01
1.94123556e+01
1.88515634e+01
1.81285608e+01
 
