# vtk DataFile Version 3.0 
Date: 3/21/2016   Time: 14:2
ASCII 
DATASET UNSTRUCTURED_GRID 
 
POINTS 3200 float 
0.000000 0.000000 0.000000 
0.025000 0.000000 0.000000 
0.050000 0.000000 0.000000 
0.050000 0.010000 0.000000 
0.050000 0.020000 0.000000 
0.025000 0.020000 0.000000 
0.000000 0.020000 0.000000 
0.000000 0.010000 0.000000 
0.000000 0.020000 0.000000 
0.025000 0.020000 0.000000 
0.050000 0.020000 0.000000 
0.050000 0.030000 0.000000 
0.050000 0.040000 0.000000 
0.025000 0.040000 0.000000 
0.000000 0.040000 0.000000 
0.000000 0.030000 0.000000 
0.000000 0.040000 0.000000 
0.025000 0.040000 0.000000 
0.050000 0.040000 0.000000 
0.050000 0.050000 0.000000 
0.050000 0.060000 0.000000 
0.025000 0.060000 0.000000 
0.000000 0.060000 0.000000 
0.000000 0.050000 0.000000 
0.000000 0.060000 0.000000 
0.025000 0.060000 0.000000 
0.050000 0.060000 0.000000 
0.050000 0.070000 0.000000 
0.050000 0.080000 0.000000 
0.025000 0.080000 0.000000 
0.000000 0.080000 0.000000 
0.000000 0.070000 0.000000 
0.000000 0.080000 0.000000 
0.025000 0.080000 0.000000 
0.050000 0.080000 0.000000 
0.050000 0.090000 0.000000 
0.050000 0.100000 0.000000 
0.025000 0.100000 0.000000 
0.000000 0.100000 0.000000 
0.000000 0.090000 0.000000 
0.000000 0.100000 0.000000 
0.025000 0.100000 0.000000 
0.050000 0.100000 0.000000 
0.050000 0.110000 0.000000 
0.050000 0.120000 0.000000 
0.025000 0.120000 0.000000 
0.000000 0.120000 0.000000 
0.000000 0.110000 0.000000 
0.000000 0.120000 0.000000 
0.025000 0.120000 0.000000 
0.050000 0.120000 0.000000 
0.050000 0.130000 0.000000 
0.050000 0.140000 0.000000 
0.025000 0.140000 0.000000 
0.000000 0.140000 0.000000 
0.000000 0.130000 0.000000 
0.000000 0.140000 0.000000 
0.025000 0.140000 0.000000 
0.050000 0.140000 0.000000 
0.050000 0.150000 0.000000 
0.050000 0.160000 0.000000 
0.025000 0.160000 0.000000 
0.000000 0.160000 0.000000 
0.000000 0.150000 0.000000 
0.000000 0.160000 0.000000 
0.025000 0.160000 0.000000 
0.050000 0.160000 0.000000 
0.050000 0.170000 0.000000 
0.050000 0.180000 0.000000 
0.025000 0.180000 0.000000 
0.000000 0.180000 0.000000 
0.000000 0.170000 0.000000 
0.000000 0.180000 0.000000 
0.025000 0.180000 0.000000 
0.050000 0.180000 0.000000 
0.050000 0.190000 0.000000 
0.050000 0.200000 0.000000 
0.025000 0.200000 0.000000 
0.000000 0.200000 0.000000 
0.000000 0.190000 0.000000 
0.000000 0.200000 0.000000 
0.025000 0.200000 0.000000 
0.050000 0.200000 0.000000 
0.050000 0.240000 0.000000 
0.050000 0.280000 0.000000 
0.025000 0.280000 0.000000 
0.000000 0.280000 0.000000 
0.000000 0.240000 0.000000 
0.000000 0.280000 0.000000 
0.025000 0.280000 0.000000 
0.050000 0.280000 0.000000 
0.050000 0.320000 0.000000 
0.050000 0.360000 0.000000 
0.025000 0.360000 0.000000 
0.000000 0.360000 0.000000 
0.000000 0.320000 0.000000 
0.000000 0.360000 0.000000 
0.025000 0.360000 0.000000 
0.050000 0.360000 0.000000 
0.050000 0.400000 0.000000 
0.050000 0.440000 0.000000 
0.025000 0.440000 0.000000 
0.000000 0.440000 0.000000 
0.000000 0.400000 0.000000 
0.000000 0.440000 0.000000 
0.025000 0.440000 0.000000 
0.050000 0.440000 0.000000 
0.050000 0.480000 0.000000 
0.050000 0.520000 0.000000 
0.025000 0.520000 0.000000 
0.000000 0.520000 0.000000 
0.000000 0.480000 0.000000 
0.000000 0.520000 0.000000 
0.025000 0.520000 0.000000 
0.050000 0.520000 0.000000 
0.050000 0.560000 0.000000 
0.050000 0.600000 0.000000 
0.025000 0.600000 0.000000 
0.000000 0.600000 0.000000 
0.000000 0.560000 0.000000 
0.000000 0.600000 0.000000 
0.025000 0.600000 0.000000 
0.050000 0.600000 0.000000 
0.050000 0.640000 0.000000 
0.050000 0.680000 0.000000 
0.025000 0.680000 0.000000 
0.000000 0.680000 0.000000 
0.000000 0.640000 0.000000 
0.000000 0.680000 0.000000 
0.025000 0.680000 0.000000 
0.050000 0.680000 0.000000 
0.050000 0.720000 0.000000 
0.050000 0.760000 0.000000 
0.025000 0.760000 0.000000 
0.000000 0.760000 0.000000 
0.000000 0.720000 0.000000 
0.000000 0.760000 0.000000 
0.025000 0.760000 0.000000 
0.050000 0.760000 0.000000 
0.050000 0.800000 0.000000 
0.050000 0.840000 0.000000 
0.025000 0.840000 0.000000 
0.000000 0.840000 0.000000 
0.000000 0.800000 0.000000 
0.000000 0.840000 0.000000 
0.025000 0.840000 0.000000 
0.050000 0.840000 0.000000 
0.050000 0.880000 0.000000 
0.050000 0.920000 0.000000 
0.025000 0.920000 0.000000 
0.000000 0.920000 0.000000 
0.000000 0.880000 0.000000 
0.000000 0.920000 0.000000 
0.025000 0.920000 0.000000 
0.050000 0.920000 0.000000 
0.050000 0.960000 0.000000 
0.050000 1.000000 0.000000 
0.025000 1.000000 0.000000 
0.000000 1.000000 0.000000 
0.000000 0.960000 0.000000 
0.050000 0.000000 0.000000 
0.075000 0.000000 0.000000 
0.100000 0.000000 0.000000 
0.100000 0.010000 0.000000 
0.100000 0.020000 0.000000 
0.075000 0.020000 0.000000 
0.050000 0.020000 0.000000 
0.050000 0.010000 0.000000 
0.050000 0.020000 0.000000 
0.075000 0.020000 0.000000 
0.100000 0.020000 0.000000 
0.100000 0.030000 0.000000 
0.100000 0.040000 0.000000 
0.075000 0.040000 0.000000 
0.050000 0.040000 0.000000 
0.050000 0.030000 0.000000 
0.050000 0.040000 0.000000 
0.075000 0.040000 0.000000 
0.100000 0.040000 0.000000 
0.100000 0.050000 0.000000 
0.100000 0.060000 0.000000 
0.075000 0.060000 0.000000 
0.050000 0.060000 0.000000 
0.050000 0.050000 0.000000 
0.050000 0.060000 0.000000 
0.075000 0.060000 0.000000 
0.100000 0.060000 0.000000 
0.100000 0.070000 0.000000 
0.100000 0.080000 0.000000 
0.075000 0.080000 0.000000 
0.050000 0.080000 0.000000 
0.050000 0.070000 0.000000 
0.050000 0.080000 0.000000 
0.075000 0.080000 0.000000 
0.100000 0.080000 0.000000 
0.100000 0.090000 0.000000 
0.100000 0.100000 0.000000 
0.075000 0.100000 0.000000 
0.050000 0.100000 0.000000 
0.050000 0.090000 0.000000 
0.050000 0.100000 0.000000 
0.075000 0.100000 0.000000 
0.100000 0.100000 0.000000 
0.100000 0.110000 0.000000 
0.100000 0.120000 0.000000 
0.075000 0.120000 0.000000 
0.050000 0.120000 0.000000 
0.050000 0.110000 0.000000 
0.050000 0.120000 0.000000 
0.075000 0.120000 0.000000 
0.100000 0.120000 0.000000 
0.100000 0.130000 0.000000 
0.100000 0.140000 0.000000 
0.075000 0.140000 0.000000 
0.050000 0.140000 0.000000 
0.050000 0.130000 0.000000 
0.050000 0.140000 0.000000 
0.075000 0.140000 0.000000 
0.100000 0.140000 0.000000 
0.100000 0.150000 0.000000 
0.100000 0.160000 0.000000 
0.075000 0.160000 0.000000 
0.050000 0.160000 0.000000 
0.050000 0.150000 0.000000 
0.050000 0.160000 0.000000 
0.075000 0.160000 0.000000 
0.100000 0.160000 0.000000 
0.100000 0.170000 0.000000 
0.100000 0.180000 0.000000 
0.075000 0.180000 0.000000 
0.050000 0.180000 0.000000 
0.050000 0.170000 0.000000 
0.050000 0.180000 0.000000 
0.075000 0.180000 0.000000 
0.100000 0.180000 0.000000 
0.100000 0.190000 0.000000 
0.100000 0.200000 0.000000 
0.075000 0.200000 0.000000 
0.050000 0.200000 0.000000 
0.050000 0.190000 0.000000 
0.050000 0.200000 0.000000 
0.075000 0.200000 0.000000 
0.100000 0.200000 0.000000 
0.100000 0.240000 0.000000 
0.100000 0.280000 0.000000 
0.075000 0.280000 0.000000 
0.050000 0.280000 0.000000 
0.050000 0.240000 0.000000 
0.050000 0.280000 0.000000 
0.075000 0.280000 0.000000 
0.100000 0.280000 0.000000 
0.100000 0.320000 0.000000 
0.100000 0.360000 0.000000 
0.075000 0.360000 0.000000 
0.050000 0.360000 0.000000 
0.050000 0.320000 0.000000 
0.050000 0.360000 0.000000 
0.075000 0.360000 0.000000 
0.100000 0.360000 0.000000 
0.100000 0.400000 0.000000 
0.100000 0.440000 0.000000 
0.075000 0.440000 0.000000 
0.050000 0.440000 0.000000 
0.050000 0.400000 0.000000 
0.050000 0.440000 0.000000 
0.075000 0.440000 0.000000 
0.100000 0.440000 0.000000 
0.100000 0.480000 0.000000 
0.100000 0.520000 0.000000 
0.075000 0.520000 0.000000 
0.050000 0.520000 0.000000 
0.050000 0.480000 0.000000 
0.050000 0.520000 0.000000 
0.075000 0.520000 0.000000 
0.100000 0.520000 0.000000 
0.100000 0.560000 0.000000 
0.100000 0.600000 0.000000 
0.075000 0.600000 0.000000 
0.050000 0.600000 0.000000 
0.050000 0.560000 0.000000 
0.050000 0.600000 0.000000 
0.075000 0.600000 0.000000 
0.100000 0.600000 0.000000 
0.100000 0.640000 0.000000 
0.100000 0.680000 0.000000 
0.075000 0.680000 0.000000 
0.050000 0.680000 0.000000 
0.050000 0.640000 0.000000 
0.050000 0.680000 0.000000 
0.075000 0.680000 0.000000 
0.100000 0.680000 0.000000 
0.100000 0.720000 0.000000 
0.100000 0.760000 0.000000 
0.075000 0.760000 0.000000 
0.050000 0.760000 0.000000 
0.050000 0.720000 0.000000 
0.050000 0.760000 0.000000 
0.075000 0.760000 0.000000 
0.100000 0.760000 0.000000 
0.100000 0.800000 0.000000 
0.100000 0.840000 0.000000 
0.075000 0.840000 0.000000 
0.050000 0.840000 0.000000 
0.050000 0.800000 0.000000 
0.050000 0.840000 0.000000 
0.075000 0.840000 0.000000 
0.100000 0.840000 0.000000 
0.100000 0.880000 0.000000 
0.100000 0.920000 0.000000 
0.075000 0.920000 0.000000 
0.050000 0.920000 0.000000 
0.050000 0.880000 0.000000 
0.050000 0.920000 0.000000 
0.075000 0.920000 0.000000 
0.100000 0.920000 0.000000 
0.100000 0.960000 0.000000 
0.100000 1.000000 0.000000 
0.075000 1.000000 0.000000 
0.050000 1.000000 0.000000 
0.050000 0.960000 0.000000 
0.100000 0.000000 0.000000 
0.125000 0.000000 0.000000 
0.150000 0.000000 0.000000 
0.150000 0.010000 0.000000 
0.150000 0.020000 0.000000 
0.125000 0.020000 0.000000 
0.100000 0.020000 0.000000 
0.100000 0.010000 0.000000 
0.100000 0.020000 0.000000 
0.125000 0.020000 0.000000 
0.150000 0.020000 0.000000 
0.150000 0.030000 0.000000 
0.150000 0.040000 0.000000 
0.125000 0.040000 0.000000 
0.100000 0.040000 0.000000 
0.100000 0.030000 0.000000 
0.100000 0.040000 0.000000 
0.125000 0.040000 0.000000 
0.150000 0.040000 0.000000 
0.150000 0.050000 0.000000 
0.150000 0.060000 0.000000 
0.125000 0.060000 0.000000 
0.100000 0.060000 0.000000 
0.100000 0.050000 0.000000 
0.100000 0.060000 0.000000 
0.125000 0.060000 0.000000 
0.150000 0.060000 0.000000 
0.150000 0.070000 0.000000 
0.150000 0.080000 0.000000 
0.125000 0.080000 0.000000 
0.100000 0.080000 0.000000 
0.100000 0.070000 0.000000 
0.100000 0.080000 0.000000 
[...]
CELL_DATA 400
FIELD FieldData 1
material 1 400 int
1
1
1
1
1
1
1
1
1
1
1
1
1
1
1
1
1
1
1
1
1
1
1
1
1
1
1
1
1
1
1
1
1
1
1
1
1
1
1
1
1
1
1
1
1
1
1
1
1
1
1
1
1
1
1
1
1
1
1
1
1
1
1
1
1
1
1
1
1
1
1
1
1
1
1
1
1
1
1
1
1
1
1
1
1
1
1
1
1
1
1
1
1
1
1
1
1
1
1
1
1
1
1
1
1
1
1
1
1
1
1
1
1
1
1
1
1
1
1
1
1
1
1
1
1
1
1
1
1
1
1
1
1
1
1
1
1
1
1
1
1
1
1
1
1
1
1
1
1
1
1
1
1
1
1
1
1
1
1
1
1
1
1
1
1
1
1
1
1
1
1
1
1
1
1
1
1
1
1
1
1
1
1
1
1
1
1
1
1
1
1
1
1
1
1
1
1
1
1
1
1
1
1
1
1
1
1
1
1
1
1
1
1
1
1
1
1
1
1
1
1
1
1
1
1
1
1
1
1
1
1
1
1
1
1
1
1
1
1
1
1
1
1
1
1
1
1
1
1
1
1
1
1
1
1
1
1
1
1
1
1
1
1
1
1
1
1
1
1
1
1
1
1
1
1
1
1
1
1
1
1
1
1
1
1
1
1
1
1
1
1
1
1
1
1
1
1
1
1
1
1
1
1
1
1
1
1
1
1
1
1
1
1
1
1
1
1
1
1
1
1
1
1
1
1
1
1
1
1
1
1
1
1
1
1
1
1
1
1
1
1
1
1
1
1
1
1
1
1
1
1
1
1
1
1
1
1
1
1
1
1
1
1
1
1
1
1
1
1
1
1
1
1
1
1
1
1
1
1
1
1
1
1
1
1
1
1
1
1
1
1
1
1
1
1
1
1
1
1
1
POINT_DATA 3200 SCALARS flux_g1 double 
LOOKUP_TABLE   default 
6.28343414e+00
6.44219107e+00
6.61335636e+00
6.67956823e+00
6.74827493e+00
6.57232925e+00
6.41185956e+00
6.34640240e+00
6.41183732e+00
6.57237683e+00
6.74824601e+00
6.81668397e+00
6.88773623e+00
6.70855982e+00
6.54503270e+00
6.47725132e+00
6.54504420e+00
6.70853833e+00
6.88774564e+00
6.95869446e+00
7.03228777e+00
6.84976643e+00
6.68328889e+00
6.61299858e+00
6.68329177e+00
6.84975946e+00
7.03229141e+00
7.10577049e+00
7.18185270e+00
6.99614486e+00
6.82651182e+00
6.75372239e+00
6.82651125e+00
6.99614586e+00
7.18185239e+00
7.25783571e+00
7.33642215e+00
7.14759594e+00
6.97476603e+00
6.89946089e+00
6.97476463e+00
7.14759935e+00
7.33642038e+00
7.41491067e+00
7.49600857e+00
7.30410542e+00
7.12805146e+00
7.05023104e+00
7.12804970e+00
7.30410825e+00
7.49600667e+00
7.57701284e+00
7.66063276e+00
7.46565959e+00
7.28637954e+00
7.20603821e+00
7.28638012e+00
7.46565898e+00
7.66063407e+00
7.74416996e+00
7.83035124e+00
7.63225245e+00
7.44974104e+00
7.36688879e+00
7.44973811e+00
7.63226054e+00
7.83034807e+00
7.91642214e+00
8.00512169e+00
7.80397928e+00
7.61815313e+00
7.53274984e+00
7.61816217e+00
7.80396402e+00
8.00512976e+00
8.09377763e+00
8.18510138e+00
7.98092823e+00
7.79182012e+00
7.70368207e+00
7.79183710e+00
7.98024477e+00
8.18505983e+00
8.54954075e+00
8.95460485e+00
8.73748992e+00
8.53592012e+00
8.14754493e+00
8.53593384e+00
8.73747220e+00
8.95462283e+00
9.35899128e+00
9.80427572e+00
9.57449591e+00
9.36028008e+00
8.93151120e+00
9.36027642e+00
9.57450232e+00
9.80427615e+00
1.02488078e+01
1.07342491e+01
1.04917976e+01
1.02650368e+01
9.79604059e+00
1.02650385e+01
1.04917939e+01
1.07342515e+01
1.12189151e+01
1.17445527e+01
1.14895170e+01
1.12502120e+01
1.07410114e+01
1.12502129e+01
1.14895181e+01
1.17445532e+01
1.22694214e+01
1.28352909e+01
1.25676972e+01
1.23158296e+01
1.17664023e+01
1.23158300e+01
1.25676970e+01
1.28352917e+01
1.34003933e+01
1.40064932e+01
1.37263351e+01
1.34619000e+01
1.28722465e+01
1.34618992e+01
1.37263360e+01
1.40064924e+01
1.46118244e+01
1.52581383e+01
1.49654155e+01
1.46884114e+01
1.40585400e+01
1.46884116e+01
1.49654141e+01
1.52581373e+01
1.59036592e+01
1.65901396e+01
1.62849542e+01
1.59953330e+01
1.53252592e+01
1.59953329e+01
1.62849532e+01
1.65901378e+01
1.72759079e+01
1.80026265e+01
1.76847296e+01
1.73827501e+01
1.66724208e+01
1.73828023e+01
1.76846152e+01
1.80026664e+01
1.87284817e+01
1.94949491e+01
1.91653109e+01
1.88502649e+01
1.81000341e+01
6.61333346e+00
6.78789326e+00
6.97480435e+00
7.04417365e+00
7.11604042e+00
6.92448172e+00
6.74825935e+00
6.67957191e+00
6.74823211e+00
6.92452230e+00
7.11603063e+00
7.18762098e+00
7.26170687e+00
7.06703332e+00
6.88773654e+00
6.81667502e+00
6.88773971e+00
7.06703709e+00
7.26169812e+00
7.33585717e+00
7.41252835e+00
7.21460217e+00
7.03227105e+00
6.95876015e+00
7.03228095e+00
7.21457954e+00
7.41254256e+00
7.48920143e+00
7.56832848e+00
7.36714773e+00
7.18185590e+00
7.10578737e+00
7.18186149e+00
7.36713491e+00
7.56833547e+00
7.64746223e+00
7.72914487e+00
7.52480585e+00
7.33645358e+00
7.25790173e+00
7.33645299e+00
7.52480728e+00
7.72914440e+00
7.81083548e+00
7.89509770e+00
7.68759213e+00
7.49602124e+00
7.41497927e+00
7.49601373e+00
7.68760946e+00
7.89508971e+00
7.97934168e+00
8.06606736e+00
7.85556748e+00
7.66060301e+00
7.57701958e+00
7.66059560e+00
7.85558526e+00
8.06605507e+00
8.15278266e+00
8.24194241e+00
8.02849126e+00
7.83033004e+00
7.74418874e+00
7.83033961e+00
8.02846410e+00
8.24195639e+00
8.33118388e+00
8.42307140e+00
8.20625843e+00
8.00512020e+00
7.91647651e+00
8.00511530e+00
8.20628733e+00
8.42306683e+00
8.51494447e+00
8.60912962e+00
8.38930308e+00
8.18506527e+00
8.09379499e+00
8.18495113e+00
8.38912960e+00
8.60905558e+00
8.98615284e+00
9.40359857e+00
9.17115952e+00
8.95449733e+00
8.54974769e+00
8.95450797e+00
9.17118017e+00
9.40356972e+00
9.82077794e+00
1.02783403e+01
1.00332861e+01
9.80416343e+00
9.35916316e+00
9.80417575e+00
1.00332522e+01
1.02783401e+01
1.07355412e+01
1.12333779e+01
1.09759092e+01
1.07341618e+01
1.02490413e+01
1.07341603e+01
1.09759170e+01
1.12333739e+01
1.17308959e+01
1.22689011e+01
1.19988626e+01
1.17444508e+01
1.12191298e+01
1.17444498e+01
1.19988681e+01
1.22689007e+01
1.28066044e+01
1.33848148e+01
1.31021731e+01
1.28351839e+01
1.22696191e+01
1.28351857e+01
1.31021710e+01
1.33848161e+01
1.39627057e+01
1.45811202e+01
1.42859247e+01
1.40063909e+01
1.34005905e+01
1.40063904e+01
1.42859230e+01
1.45811204e+01
1.51992227e+01
1.58578500e+01
1.55500792e+01
1.52580400e+01
1.46120307e+01
1.52580408e+01
1.55500745e+01
1.58578528e+01
1.65161433e+01
1.72150206e+01
1.68946371e+01
1.65900426e+01
1.59038855e+01
1.65900321e+01
1.68946590e+01
1.72150244e+01
1.79136315e+01
1.86526452e+01
1.83195753e+01
1.80025125e+01
1.72760864e+01
1.80025649e+01
1.83194345e+01
1.86527259e+01
1.93912895e+01
2.01702166e+01
1.98254364e+01
1.94948532e+01
1.87286904e+01
6.97481221e+00
7.16489175e+00
7.36746021e+00
7.43995724e+00
7.51496874e+00
7.30768848e+00
7.11604664e+00
7.04417584e+00
7.11603303e+00
7.30773052e+00
7.51494441e+00
7.58972653e+00
7.66702492e+00
7.45652264e+00
7.26170525e+00
7.18763620e+00
7.26170361e+00
7.45651569e+00
7.66703541e+00
7.74432049e+00
7.82415927e+00
7.61025371e+00
7.41252412e+00
7.33582635e+00
7.41253354e+00
7.61023571e+00
7.82416549e+00
7.90396309e+00
7.98632668e+00
7.76934469e+00
7.56832050e+00
7.48917115e+00
7.56831807e+00
7.76935442e+00
7.98632016e+00
8.06865536e+00
8.15344876e+00
7.93357775e+00
7.72913672e+00
7.64745392e+00
7.72913424e+00
7.93358170e+00
8.15344516e+00
8.23826940e+00
8.32552023e+00
8.10261958e+00
7.89510430e+00
7.81085979e+00
7.89510828e+00
8.10260335e+00
8.32552812e+00
8.41280961e+00
8.50266129e+00
8.27644076e+00
8.06608170e+00
7.97938140e+00
8.06608071e+00
8.27644099e+00
8.50266710e+00
8.59250269e+00
8.68500182e+00
8.45551132e+00
8.24194151e+00
8.15274563e+00
8.24193937e+00
8.45553855e+00
8.68499207e+00
8.77747452e+00
8.87235009e+00
8.63994427e+00
8.42306881e+00
8.33115985e+00
8.42306705e+00
8.63991548e+00
8.87234606e+00
8.96720655e+00
9.06453570e+00
8.82898749e+00
8.60914419e+00
8.51494537e+00
8.60908813e+00
8.82891960e+00
9.06451423e+00
9.45402674e+00
9.88417976e+00
9.63605794e+00
9.40362782e+00
8.98609407e+00
9.40361098e+00
9.63598070e+00
9.88418656e+00
1.03136713e+01
1.07840328e+01
1.05234237e+01
1.02784017e+01
9.82068819e+00
1.02783930e+01
1.05234594e+01
1.07840459e+01
1.12539182e+01
1.17642319e+01
1.14909191e+01
1.12334146e+01
1.07354218e+01
1.12334140e+01
1.14909153e+01
1.17642313e+01
1.22741514e+01
1.28247359e+01
1.25389507e+01
1.22689535e+01
1.17307870e+01
1.22689545e+01
1.25389456e+01
1.28247387e+01
1.33749110e+01
1.39657332e+01
1.36674189e+01
1.33848723e+01
1.28065166e+01
1.33848725e+01
1.36674223e+01
1.39657298e+01
1.45561388e+01
1.51872095e+01
1.48763321e+01
1.45811731e+01
1.39626243e+01
1.45811714e+01
1.48763353e+01
1.51872094e+01
1.58178753e+01
1.64891862e+01
1.61656522e+01
1.58578930e+01
1.51991217e+01
1.58578963e+01
1.61656492e+01
1.64891873e+01
1.71600865e+01
1.78715190e+01
1.75355484e+01
1.72150726e+01
1.65160259e+01
1.72150792e+01
1.75355344e+01
1.78715033e+01
1.85824804e+01
1.93343153e+01
1.89854226e+01
1.86526832e+01
1.79135450e+01
1.86527546e+01
1.89853601e+01
1.93343794e+01
2.00853950e+01
2.08770169e+01
2.05165452e+01
2.01702497e+01
1.93912264e+01
7.36746418e+00
7.57325799e+00
7.79165501e+00
7.86731011e+00
7.94550105e+00
7.72241194e+00
7.51496420e+00
7.43994997e+00
7.51494094e+00
7.72245073e+00
7.94548345e+00
8.02343577e+00
8.10387567e+00
7.87768698e+00
7.66700788e+00
7.58971257e+00
7.66701462e+00
7.87767912e+00
8.10388115e+00
8.18433104e+00
8.26720965e+00
8.03783959e+00
7.82415605e+00
7.74430830e+00
7.82416395e+00
8.03781928e+00
8.26721778e+00
8.35008847e+00
8.43548396e+00
8.20299125e+00
7.98634043e+00
7.90400592e+00
7.98634174e+00
8.20298276e+00
8.43548828e+00
8.52089753e+00
8.60885736e+00
8.37318996e+00
8.15345768e+00
8.06866422e+00
8.15345545e+00
8.37319490e+00
8.60885664e+00
8.69679917e+00
8.78731021e+00
8.54848816e+00
8.32552177e+00
8.23823951e+00
8.32552031e+00
8.54850159e+00
8.78730558e+00
8.87780509e+00
8.97085471e+00
8.72894797e+00
8.50265703e+00
8.41280769e+00
8.50265851e+00
8.72894830e+00
8.97085572e+00
9.06393846e+00
9.15947976e+00
8.91447591e+00
8.68499074e+00
8.59251233e+00
8.68498752e+00
8.91447067e+00
9.15947378e+00
9.25499346e+00
9.35294671e+00
9.10479123e+00
8.87234640e+00
8.77747664e+00
8.87234703e+00
9.10478572e+00
9.35295342e+00
9.45091844e+00
9.55144283e+00
9.30010426e+00
9.06453496e+00
8.96719252e+00
9.06450689e+00
9.30010004e+00
9.55143604e+00
9.95349450e+00
1.03960354e+01
1.01322626e+01
9.88417366e+00
9.45404511e+00
9.88417690e+00
1.01323135e+01
1.03960767e+01
1.08384747e+01
1.13209396e+01
1.10445692e+01
1.07840188e+01
1.03136910e+01
1.07840237e+01
1.10445861e+01
1.13209197e+01
1.18036470e+01
1.23263863e+01
1.20374815e+01
1.17642071e+01
1.12539792e+01
1.17642103e+01
1.20374740e+01
1.23263978e+01
1.28491707e+01
1.34120559e+01
1.31105171e+01
1.28247163e+01
1.22741964e+01
1.28247191e+01
1.31105131e+01
1.34120579e+01
1.39750334e+01
1.45781427e+01
1.42640217e+01
1.39657108e+01
1.33749362e+01
1.39657043e+01
1.42640343e+01
1.45781395e+01
1.51813494e+01
1.58247388e+01
1.54980851e+01
1.51871865e+01
1.45561774e+01
1.51871916e+01
1.54980729e+01
1.58247414e+01
1.64682190e+01
1.71518378e+01
1.68126228e+01
1.64891694e+01
1.58179065e+01
1.64891660e+01
1.68126316e+01
1.71518303e+01
1.78354933e+01
1.85591939e+01
1.82075255e+01
1.78715014e+01
1.71601469e+01
1.78714902e+01
1.82075293e+01
1.85591983e+01
1.92831936e+01
2.00472883e+01
1.96828198e+01
1.93343017e+01
1.85825076e+01
1.93343728e+01
1.96826499e+01
2.00473203e+01
2.08110989e+01
2.16152252e+01
2.12390514e+01
2.08770087e+01
2.00854049e+01
7.79171151e+00
8.01315639e+00
8.24736442e+00
8.40476309e+00
8.57193092e+00
8.24648806e+00
7.94560341e+00
7.86727780e+00
7.94552833e+00
8.24651567e+00
8.57190361e+00
8.73905276e+00
8.91619755e+00
8.49077023e+00
8.10385616e+00
8.02351803e+00
8.10388628e+00
8.49070447e+00
8.91619883e+00
9.09326425e+00
9.28058059e+00
8.74509712e+00
8.26720570e+00
8.18433166e+00
8.26720122e+00
8.74511287e+00
9.28056513e+00
9.46781148e+00
9.66513367e+00
9.00977684e+00
8.43545673e+00
8.35005205e+00
8.43545279e+00
9.00978443e+00
9.66512829e+00
9.86245134e+00
1.00697830e+01
9.28446539e+00
8.60884173e+00
8.52087384e+00
8.60884466e+00
9.28445772e+00
1.00697850e+01
1.02771426e+01
1.04945215e+01
9.56911166e+00
8.78735212e+00
8.69683337e+00
8.78736030e+00
9.56909308e+00
1.04945300e+01
1.07119332e+01
1.09393990e+01
9.86367441e+00
8.97094093e+00
8.87790281e+00
8.97094508e+00
9.86366436e+00
1.09394042e+01
1.11668648e+01
1.14044383e+01
1.01683374e+01
9.15945215e+00
9.06396252e+00
9.15943865e+00
1.01683644e+01
1.14044268e+01
1.16419603e+01
1.18895444e+01
1.04832504e+01
9.35287638e+00
9.25489299e+00
9.35287194e+00
1.04832609e+01
1.18895385e+01
1.21371137e+01
1.23947090e+01
1.08082345e+01
9.55138100e+00
9.45085605e+00
9.55138259e+00
1.08082296e+01
1.23947104e+01
1.27811582e+01
1.31901609e+01
1.16552208e+01
1.03960841e+01
9.95359370e+00
1.03961082e+01
1.16551313e+01
1.31902105e+01
1.35992744e+01
1.40309560e+01
1.25625935e+01
1.13209312e+01
1.08383854e+01
1.13209287e+01
1.25626380e+01
1.40309268e+01
1.44625635e+01
1.49167963e+01
1.35301940e+01
1.23264092e+01
1.18036443e+01
1.23264189e+01
1.35301812e+01
1.49168035e+01
1.53710481e+01
1.58479469e+01
1.45580066e+01
1.34120505e+01
1.28491435e+01
1.34120562e+01
1.45580255e+01
1.58479410e+01
1.63248134e+01
1.68243705e+01
1.56462829e+01
1.45781495e+01
1.39750186e+01
1.45781522e+01
1.56462849e+01
1.68243636e+01
1.73238802e+01
1.78460074e+01
1.67948935e+01
1.58247411e+01
1.51813134e+01
1.58247462e+01
1.67949044e+01
1.78460000e+01
1.83681335e+01
1.89129053e+01
1.80037107e+01
1.71518438e+01
1.64682436e+01
1.71518489e+01
1.80037111e+01
1.89129115e+01
1.94576535e+01
2.00251361e+01
1.92730261e+01
1.85591978e+01
1.78354530e+01
1.85591903e+01
1.92730810e+01
2.00250947e+01
2.05925395e+01
2.11824753e+01
2.06023861e+01
2.00472748e+01
1.92832197e+01
2.00472983e+01
2.06022818e+01
2.11825666e+01
2.17722872e+01
2.23848012e+01
2.19930385e+01
2.16152073e+01
2.08111295e+01
8.24745095e+00
8.48412552e+00
8.73435619e+00
8.97959070e+00
9.24740422e+00
8.89715064e+00
8.57203272e+00
8.40466448e+00
8.57195143e+00
8.89724660e+00
9.24739299e+00
9.51498399e+00
9.80521312e+00
9.34146644e+00
8.91622237e+00
8.73898683e+00
8.91620477e+00
9.34150624e+00
9.80522643e+00
1.00954887e+01
1.04084057e+01
9.81598025e+00
9.28057692e+00
9.09330260e+00
9.28056288e+00
9.81596459e+00
1.04084033e+01
1.07213116e+01
1.10568207e+01
1.03204426e+01
9.66513803e+00
9.46782208e+00
9.66513909e+00
1.03204332e+01
1.10568254e+01
1.13923666e+01
1.17505580e+01
1.08551160e+01
1.00697866e+01
9.86244671e+00
1.00697859e+01
1.08551192e+01
1.17505600e+01
1.21087045e+01
1.24895015e+01
1.14200620e+01
1.04945165e+01
1.02771083e+01
1.04945130e+01
1.14200748e+01
1.24894951e+01
1.28703078e+01
1.32736803e+01
1.20151980e+01
1.09393940e+01
1.07119205e+01
1.09394007e+01
1.20151848e+01
1.32736860e+01
1.36770667e+01
1.41030683e+01
1.26403496e+01
1.14044355e+01
1.11668921e+01
1.14044339e+01
1.26403485e+01
1.41030706e+01
1.45290824e+01
1.49777304e+01
1.32956914e+01
1.18895325e+01
1.16419667e+01
1.18895251e+01
1.32957049e+01
1.49777262e+01
1.54263521e+01
1.58975818e+01
1.39812717e+01
1.23946860e+01
1.21370748e+01
1.23946836e+01
1.39812795e+01
1.58975774e+01
1.62117281e+01
1.65358900e+01
1.47252654e+01
1.31901851e+01
1.27811050e+01
1.31902076e+01
1.47252284e+01
1.65359051e+01
1.68601037e+01
1.71943852e+01
1.54992156e+01
1.40309357e+01
1.35992980e+01
1.40309253e+01
1.54992275e+01
1.71943825e+01
1.75286425e+01
1.78729653e+01
1.63034732e+01
1.49167996e+01
1.44625462e+01
1.49168026e+01
1.63034737e+01
1.78729639e+01
1.82172866e+01
1.85716486e+01
1.71378590e+01
1.58479533e+01
1.53710688e+01
1.58479542e+01
1.71378529e+01
1.85716534e+01
1.89260229e+01
1.92904618e+01
1.80023523e+01
1.68243785e+01
1.63248478e+01
1.68243736e+01
1.80023547e+01
1.92904627e+01
1.96548966e+01
2.00294136e+01
1.88971136e+01
1.78459972e+01
1.73238721e+01
1.78459908e+01
1.88971304e+01
2.00294060e+01
2.04038960e+01
2.07884429e+01
1.98221661e+01
1.89128978e+01
1.83681239e+01
1.89128945e+01
1.98221733e+01
2.07884495e+01
2.11729987e+01
2.15675857e+01
2.07771821e+01
2.00251312e+01
1.94577040e+01
2.00251106e+01
2.07771254e+01
2.15676102e+01
2.19620769e+01
2.23668413e+01
2.17622391e+01
2.11824767e+01
2.05925006e+01
2.11825038e+01
2.17621768e+01
2.23669075e+01
2.27712666e+01
2.31857884e+01
2.27784852e+01
2.23847432e+01
2.17723473e+01
8.73440602e+00
8.98659679e+00
9.25274841e+00
9.59223155e+00
9.97188811e+00
9.59706329e+00
9.24746148e+00
8.97952992e+00
9.24739618e+00
9.59715325e+00
9.97184976e+00
1.03513009e+01
1.07709177e+01
1.02689931e+01
9.80520980e+00
9.51499775e+00
9.80522398e+00
1.02689884e+01
1.07709317e+01
1.11906482e+01
1.16505562e+01
1.10008627e+01
1.04084096e+01
1.00954883e+01
1.04084102e+01
1.10008548e+01
1.16505627e+01
1.21104948e+01
1.26107136e+01
1.17932133e+01
1.10568183e+01
1.07212910e+01
1.10568171e+01
1.17932229e+01
1.26107072e+01
1.31108804e+01
1.36512580e+01
1.26459666e+01
1.17505531e+01
1.13923677e+01
1.17505559e+01
1.26459689e+01
1.36512598e+01
1.41916669e+01
1.47721787e+01
1.35589107e+01
1.24894998e+01
1.21087096e+01
1.24894990e+01
1.35589058e+01
1.47721778e+01
1.53527267e+01
1.59735392e+01
1.45321922e+01
1.32736832e+01
1.28703078e+01
1.32736843e+01
1.45322030e+01
1.59735391e+01
1.65943386e+01
1.72553040e+01
1.55658297e+01
1.41030581e+01
1.36770470e+01
1.41030569e+01
1.55658327e+01
1.72552974e+01
1.79162774e+01
1.86174632e+01
1.66596937e+01
1.49777422e+01
1.45291015e+01
1.49777509e+01
1.66596701e+01
1.86174738e+01
1.93186765e+01
2.00601545e+01
1.78137861e+01
1.58976008e+01
1.54263864e+01
1.58975964e+01
1.78137954e+01
2.00601532e+01
2.02455169e+01
2.04333924e+01
1.83466414e+01
1.65359179e+01
1.62117224e+01
1.65359219e+01
1.83466386e+01
2.04333927e+01
2.06212706e+01
2.08116641e+01
1.88895248e+01
1.71943868e+01
1.68601266e+01
1.71943838e+01
1.88895286e+01
2.08116626e+01
2.10020511e+01
2.11949525e+01
1.94424976e+01
1.78729482e+01
1.75286350e+01
1.78729460e+01
1.94425027e+01
2.11949497e+01
2.13878430e+01
2.15832411e+01
2.00055560e+01
1.85716300e+01
1.82172541e+01
1.85716313e+01
2.00055560e+01
2.15832404e+01
2.17786446e+01
2.19765444e+01
2.05786264e+01
1.92904603e+01
1.89260141e+01
1.92904645e+01
2.05786178e+01
2.19765485e+01
2.21744672e+01
2.23748956e+01
2.11616436e+01
2.00294229e+01
1.96549300e+01
2.00294233e+01
2.11616362e+01
2.23749005e+01
2.25753436e+01
2.27783073e+01
2.17546558e+01
2.07884529e+01
2.04039186e+01
2.07884603e+01
2.17546567e+01
2.27783077e+01
2.29812569e+01
2.31867051e+01
2.23578265e+01
2.15675767e+01
2.11729471e+01
2.15675769e+01
2.23578904e+01
2.31866746e+01
2.33921971e+01
2.36001326e+01
2.29711989e+01
2.23667919e+01
2.19621351e+01
2.23668105e+01
2.29711591e+01
2.36002007e+01
2.38077848e+01
2.40181631e+01
2.35954783e+01
2.31857143e+01
2.27713603e+01
9.25276023e+00
9.52062502e+00
9.80253352e+00
1.01105344e+01
1.04494587e+01
1.02037217e+01
9.97190093e+00
9.59221598e+00
9.97185190e+00
1.02038525e+01
1.04493969e+01
1.07880508e+01
1.11573879e+01
1.09582605e+01
1.07709142e+01
1.03513058e+01
1.07709315e+01
1.09582477e+01
1.11574009e+01
1.15268114e+01
1.19270483e+01
1.17827935e+01
1.16505586e+01
1.11906401e+01
1.16505623e+01
1.17827982e+01
1.19270486e+01
1.23272506e+01
1.27582860e+01
1.26778735e+01
1.26107132e+01
1.21104897e+01
1.26107089e+01
1.26778896e+01
1.27582790e+01
1.31893460e+01
1.36511970e+01
1.36434076e+01
1.36512484e+01
1.31109042e+01
1.36512526e+01
1.36433878e+01
1.36512048e+01
1.41130621e+01
1.46056731e+01
1.46791864e+01
1.47721868e+01
1.41916477e+01
1.47721809e+01
1.46791982e+01
1.46056691e+01
1.50982665e+01
1.56216404e+01
1.57853186e+01
1.59735338e+01
1.53527271e+01
1.59735396e+01
1.57852995e+01
1.56216450e+01
1.61450145e+01
1.66992003e+01
1.69618377e+01
1.72553202e+01
1.65943391e+01
1.72553149e+01
1.69618481e+01
1.66991954e+01
1.72533821e+01
1.78383304e+01
1.82087663e+01
1.86174697e+01
1.79162957e+01
1.86174699e+01
1.82087725e+01
1.78383310e+01
1.84232931e+01
1.90390519e+01
1.95260015e+01
2.00601378e+01
1.93186648e+01
2.00601383e+01
1.95259984e+01
1.90390527e+01
1.93029435e+01
1.95724975e+01
1.99837477e+01
2.04333882e+01
2.02455049e+01
2.04333885e+01
1.99837476e+01
1.95724971e+01
1.98420499e+01
2.01172675e+01
2.04490598e+01
2.08116617e+01
2.06212676e+01
2.08116608e+01
2.04490622e+01
2.01172661e+01
2.03924870e+01
2.06733589e+01
2.09219162e+01
2.11949508e+01
2.10020503e+01
2.11949497e+01
2.09219182e+01
2.06733583e+01
2.09542344e+01
2.12407510e+01
2.14022895e+01
2.15832439e+01
2.13878465e+01
2.15832443e+01
2.14022871e+01
2.12407509e+01
2.15272737e+01
2.18194386e+01
2.18901592e+01
2.19765514e+01
2.17786515e+01
2.19765556e+01
2.18901571e+01
2.18194420e+01
2.21116126e+01
2.24094347e+01
2.23855399e+01
2.23749009e+01
2.21744734e+01
2.23749017e+01
2.23855385e+01
2.24094370e+01
2.27072505e+01
2.30107508e+01
2.28884589e+01
2.27783009e+01
2.25753397e+01
2.27783011e+01
2.28884611e+01
2.30107532e+01
2.33142503e+01
2.36233892e+01
2.33990451e+01
2.31867088e+01
2.29812230e+01
2.31867007e+01
2.33990619e+01
2.36233767e+01
2.39325083e+01
2.42473046e+01
2.39171549e+01
2.36001337e+01
2.33921608e+01