# vtk DataFile Version 3.0 
Date: 3/21/2016   Time: 14:3
ASCII 
DATASET UNSTRUCTURED_GRID 
 
POINTS 1072 float 
0.000000 0.000000 0.000000 
0.025000 0.000000 0.000000 
0.050000 0.000000 0.000000 
0.050000 0.002500 0.000000 
0.050000 0.005000 0.000000 
0.025000 0.005000 0.000000 
0.000000 0.005000 0.000000 
0.000000 0.002500 0.000000 
0.000000 0.005000 0.000000 
0.025000 0.005000 0.000000 
0.050000 0.005000 0.000000 
0.050000 0.010000 0.000000 
0.050000 0.015000 0.000000 
0.025000 0.015000 0.000000 
0.000000 0.015000 0.000000 
0.000000 0.010000 0.000000 
0.000000 0.015000 0.000000 
0.025000 0.015000 0.000000 
0.050000 0.015000 0.000000 
0.050000 0.020000 0.000000 
0.050000 0.025000 0.000000 
0.025000 0.025000 0.000000 
0.000000 0.025000 0.000000 
0.000000 0.020000 0.000000 
0.000000 0.025000 0.000000 
0.025000 0.025000 0.000000 
0.050000 0.025000 0.000000 
0.050000 0.030000 0.000000 
0.050000 0.035000 0.000000 
0.025000 0.035000 0.000000 
0.000000 0.035000 0.000000 
0.000000 0.030000 0.000000 
0.000000 0.035000 0.000000 
0.025000 0.035000 0.000000 
0.050000 0.035000 0.000000 
0.050000 0.040000 0.000000 
0.050000 0.045000 0.000000 
0.025000 0.045000 0.000000 
0.000000 0.045000 0.000000 
0.000000 0.040000 0.000000 
0.000000 0.045000 0.000000 
0.025000 0.045000 0.000000 
0.050000 0.045000 0.000000 
0.050000 0.095000 0.000000 
0.050000 0.145000 0.000000 
0.025000 0.145000 0.000000 
0.000000 0.145000 0.000000 
0.000000 0.095000 0.000000 
0.000000 0.145000 0.000000 
0.025000 0.145000 0.000000 
0.050000 0.145000 0.000000 
0.050000 0.240000 0.000000 
0.050000 0.335000 0.000000 
0.025000 0.335000 0.000000 
0.000000 0.335000 0.000000 
0.000000 0.240000 0.000000 
0.000000 0.335000 0.000000 
0.025000 0.335000 0.000000 
0.050000 0.335000 0.000000 
0.050000 0.430000 0.000000 
0.050000 0.525000 0.000000 
0.025000 0.525000 0.000000 
0.000000 0.525000 0.000000 
0.000000 0.430000 0.000000 
0.000000 0.525000 0.000000 
0.025000 0.525000 0.000000 
0.050000 0.525000 0.000000 
0.050000 0.620000 0.000000 
0.050000 0.715000 0.000000 
0.025000 0.715000 0.000000 
0.000000 0.715000 0.000000 
0.000000 0.620000 0.000000 
0.000000 0.715000 0.000000 
0.025000 0.715000 0.000000 
0.050000 0.715000 0.000000 
0.050000 0.810000 0.000000 
0.050000 0.905000 0.000000 
0.025000 0.905000 0.000000 
0.000000 0.905000 0.000000 
0.000000 0.810000 0.000000 
0.000000 0.905000 0.000000 
0.025000 0.905000 0.000000 
0.050000 0.905000 0.000000 
0.050000 0.952500 0.000000 
0.050000 1.000000 0.000000 
0.025000 1.000000 0.000000 
0.000000 1.000000 0.000000 
0.000000 0.952500 0.000000 
0.050000 0.000000 0.000000 
0.100000 0.000000 0.000000 
0.150000 0.000000 0.000000 
0.150000 0.002500 0.000000 
0.150000 0.005000 0.000000 
0.100000 0.005000 0.000000 
0.050000 0.005000 0.000000 
0.050000 0.002500 0.000000 
0.050000 0.005000 0.000000 
0.100000 0.005000 0.000000 
0.150000 0.005000 0.000000 
0.150000 0.010000 0.000000 
0.150000 0.015000 0.000000 
0.100000 0.015000 0.000000 
0.050000 0.015000 0.000000 
0.050000 0.010000 0.000000 
0.050000 0.015000 0.000000 
0.100000 0.015000 0.000000 
0.150000 0.015000 0.000000 
0.150000 0.020000 0.000000 
0.150000 0.025000 0.000000 
0.100000 0.025000 0.000000 
0.050000 0.025000 0.000000 
0.050000 0.020000 0.000000 
0.050000 0.025000 0.000000 
0.100000 0.025000 0.000000 
0.150000 0.025000 0.000000 
0.150000 0.030000 0.000000 
0.150000 0.035000 0.000000 
0.100000 0.035000 0.000000 
0.050000 0.035000 0.000000 
0.050000 0.030000 0.000000 
0.050000 0.035000 0.000000 
0.100000 0.035000 0.000000 
0.150000 0.035000 0.000000 
0.150000 0.040000 0.000000 
0.150000 0.045000 0.000000 
0.100000 0.045000 0.000000 
0.050000 0.045000 0.000000 
0.050000 0.040000 0.000000 
0.050000 0.045000 0.000000 
0.100000 0.045000 0.000000 
0.150000 0.045000 0.000000 
0.150000 0.095000 0.000000 
0.150000 0.145000 0.000000 
0.100000 0.145000 0.000000 
0.050000 0.145000 0.000000 
0.050000 0.095000 0.000000 
0.050000 0.145000 0.000000 
0.100000 0.145000 0.000000 
0.150000 0.145000 0.000000 
0.150000 0.240000 0.000000 
0.150000 0.335000 0.000000 
0.100000 0.335000 0.000000 
0.050000 0.335000 0.000000 
0.050000 0.240000 0.000000 
0.050000 0.335000 0.000000 
0.100000 0.335000 0.000000 
0.150000 0.335000 0.000000 
0.150000 0.430000 0.000000 
0.150000 0.525000 0.000000 
0.100000 0.525000 0.000000 
0.050000 0.525000 0.000000 
0.050000 0.430000 0.000000 
0.050000 0.525000 0.000000 
0.100000 0.525000 0.000000 
0.150000 0.525000 0.000000 
0.150000 0.620000 0.000000 
0.150000 0.715000 0.000000 
0.100000 0.715000 0.000000 
0.050000 0.715000 0.000000 
0.050000 0.620000 0.000000 
0.050000 0.715000 0.000000 
0.100000 0.715000 0.000000 
0.150000 0.715000 0.000000 
0.150000 0.810000 0.000000 
0.150000 0.905000 0.000000 
0.100000 0.905000 0.000000 
0.050000 0.905000 0.000000 
0.050000 0.810000 0.000000 
0.050000 0.905000 0.000000 
0.100000 0.905000 0.000000 
0.150000 0.905000 0.000000 
0.150000 0.952500 0.000000 
0.150000 1.000000 0.000000 
0.100000 1.000000 0.000000 
0.050000 1.000000 0.000000 
0.050000 0.952500 0.000000 
0.150000 0.000000 0.000000 
0.212500 0.000000 0.000000 
0.275000 0.000000 0.000000 
0.275000 0.002500 0.000000 
0.275000 0.005000 0.000000 
0.212500 0.005000 0.000000 
0.150000 0.005000 0.000000 
0.150000 0.002500 0.000000 
0.150000 0.005000 0.000000 
0.212500 0.005000 0.000000 
0.275000 0.005000 0.000000 
0.275334 0.010000 0.000000 
0.275667 0.015000 0.000000 
0.212834 0.015000 0.000000 
0.150000 0.015000 0.000000 
0.150000 0.010000 0.000000 
0.150000 0.015000 0.000000 
0.212834 0.015000 0.000000 
0.275667 0.015000 0.000000 
0.276334 0.020000 0.000000 
0.277000 0.025000 0.000000 
0.213500 0.025000 0.000000 
0.150000 0.025000 0.000000 
0.150000 0.020000 0.000000 
0.150000 0.025000 0.000000 
0.213500 0.025000 0.000000 
0.277000 0.025000 0.000000 
0.278000 0.030000 0.000000 
0.279000 0.035000 0.000000 
0.214500 0.035000 0.000000 
0.150000 0.035000 0.000000 
0.150000 0.030000 0.000000 
0.150000 0.035000 0.000000 
0.214500 0.035000 0.000000 
0.279000 0.035000 0.000000 
0.280334 0.040000 0.000000 
0.281667 0.045000 0.000000 
0.215834 0.045000 0.000000 
0.150000 0.045000 0.000000 
0.150000 0.040000 0.000000 
0.150000 0.045000 0.000000 
0.215834 0.045000 0.000000 
0.281667 0.045000 0.000000 
0.290000 0.070000 0.000000 
0.298333 0.095000 0.000000 
0.275000 0.120000 0.000000 
0.251667 0.145000 0.000000 
0.200834 0.145000 0.000000 
0.150000 0.145000 0.000000 
0.150000 0.095000 0.000000 
0.150000 0.145000 0.000000 
0.200834 0.145000 0.000000 
0.251667 0.145000 0.000000 
0.275000 0.215000 0.000000 
0.298333 0.285000 0.000000 
0.275000 0.310000 0.000000 
0.251667 0.335000 0.000000 
0.200834 0.335000 0.000000 
0.150000 0.335000 0.000000 
0.150000 0.240000 0.000000 
0.150000 0.335000 0.000000 
0.200834 0.335000 0.000000 
0.251667 0.335000 0.000000 
0.275000 0.405000 0.000000 
0.298333 0.475000 0.000000 
0.275000 0.500000 0.000000 
0.251667 0.525000 0.000000 
0.200834 0.525000 0.000000 
0.150000 0.525000 0.000000 
0.150000 0.430000 0.000000 
0.150000 0.525000 0.000000 
0.200834 0.525000 0.000000 
0.251667 0.525000 0.000000 
0.275000 0.595000 0.000000 
0.298333 0.665000 0.000000 
0.275000 0.690000 0.000000 
0.251667 0.715000 0.000000 
0.200834 0.715000 0.000000 
0.150000 0.715000 0.000000 
0.150000 0.620000 0.000000 
0.150000 0.715000 0.000000 
0.200834 0.715000 0.000000 
0.251667 0.715000 0.000000 
0.275000 0.785000 0.000000 
0.298333 0.855000 0.000000 
0.275000 0.880000 0.000000 
0.251667 0.905000 0.000000 
0.200834 0.905000 0.000000 
0.150000 0.905000 0.000000 
0.150000 0.810000 0.000000 
0.150000 0.905000 0.000000 
0.200834 0.905000 0.000000 
0.251667 0.905000 0.000000 
0.260000 0.930000 0.000000 
0.268333 0.955000 0.000000 
0.269667 0.960000 0.000000 
0.271000 0.965000 0.000000 
0.272000 0.970000 0.000000 
0.273000 0.975000 0.000000 
0.273667 0.980000 0.000000 
0.274333 0.985000 0.000000 
0.274667 0.990000 0.000000 
0.275000 0.995000 0.000000 
0.275000 0.997500 0.000000 
0.275000 1.000000 0.000000 
0.212500 1.000000 0.000000 
0.150000 1.000000 0.000000 
0.150000 0.952500 0.000000 
0.279000 0.035000 0.000000 
0.278000 0.030000 0.000000 
0.277000 0.025000 0.000000 
0.276334 0.020000 0.000000 
0.275667 0.015000 0.000000 
0.275334 0.010000 0.000000 
0.275000 0.005000 0.000000 
0.275000 0.002500 0.000000 
0.275000 0.000000 0.000000 
0.337500 0.000000 0.000000 
0.400000 0.000000 0.000000 
0.400000 0.032500 0.000000 
0.400000 0.065000 0.000000 
0.380500 0.080000 0.000000 
0.361000 0.095000 0.000000 
0.329666 0.095000 0.000000 
0.298333 0.095000 0.000000 
0.290000 0.070000 0.000000 
0.281667 0.045000 0.000000 
0.280334 0.040000 0.000000 
0.251667 0.145000 0.000000 
0.275000 0.120000 0.000000 
0.298333 0.095000 0.000000 
0.329666 0.095000 0.000000 
0.361000 0.095000 0.000000 
0.391000 0.145000 0.000000 
0.421000 0.195000 0.000000 
0.389500 0.240000 0.000000 
0.358000 0.285000 0.000000 
0.328167 0.285000 0.000000 
0.298333 0.285000 0.000000 
0.275000 0.215000 0.000000 
0.251667 0.335000 0.000000 
0.275000 0.310000 0.000000 
0.298333 0.285000 0.000000 
0.328167 0.285000 0.000000 
0.358000 0.285000 0.000000 
0.382000 0.305000 0.000000 
0.406000 0.325000 0.000000 
0.399500 0.390000 0.000000 
0.393000 0.455000 0.000000 
0.379000 0.465000 0.000000 
0.365000 0.475000 0.000000 
0.331666 0.475000 0.000000 
0.298333 0.475000 0.000000 
0.275000 0.405000 0.000000 
0.251667 0.525000 0.000000 
0.275000 0.500000 0.000000 
0.298333 0.475000 0.000000 
0.331666 0.475000 0.000000 
0.365000 0.475000 0.000000 
0.392500 0.530000 0.000000 
0.420000 0.585000 0.000000 
0.388000 0.625000 0.000000 
0.356000 0.665000 0.000000 
0.327167 0.665000 0.000000 
0.298333 0.665000 0.000000 
0.275000 0.595000 0.000000 
0.251667 0.715000 0.000000 
0.275000 0.690000 0.000000 
0.298333 0.665000 0.000000 
0.327167 0.665000 0.000000 
0.356000 0.665000 0.000000 
0.367000 0.675000 0.000000 
0.378000 0.685000 0.000000 
0.392000 0.720000 0.000000 
0.406000 0.755000 0.000000 
0.395500 0.790000 0.000000 
0.385000 0.825000 0.000000 
[...]
CELL_DATA 110
FIELD FieldData 1
material 1 110 int
1
1
1
1
1
1
1
1
1
1
1
1
1
1
1
1
1
1
1
1
1
1
1
1
1
1
1
1
1
1
1
1
1
1
1
1
1
1
1
1
1
1
1
1
1
1
1
1
1
1
1
1
1
1
1
1
1
1
1
1
1
1
1
1
1
1
1
1
1
1
1
1
1
1
1
1
1
1
1
1
1
1
1
1
1
1
1
1
1
1
1
1
1
1
1
1
1
1
1
1
1
1
1
1
1
1
1
1
1
1
POINT_DATA 1072 SCALARS flux_g1 double 
LOOKUP_TABLE   default 
6.28374389e+00
6.44289180e+00
6.61461869e+00
6.63148763e+00
6.64844045e+00
6.47482582e+00
6.31546688e+00
6.29968347e+00
6.31555454e+00
6.47454647e+00
6.64853629e+00
6.68235158e+00
6.71643757e+00
6.54041221e+00
6.37973550e+00
6.34718838e+00
6.37972790e+00
6.54037441e+00
6.71644543e+00
6.75056830e+00
6.78524198e+00
6.60743015e+00
6.44536323e+00
6.41233996e+00
6.44537702e+00
6.60737649e+00
6.78526368e+00
6.82001796e+00
6.85551259e+00
6.67571573e+00
6.51209726e+00
6.47844945e+00
6.51211363e+00
6.67571496e+00
6.85550658e+00
6.89104093e+00
6.92702352e+00
6.74584242e+00
6.58029555e+00
6.54572612e+00
6.58062737e+00
6.74526270e+00
6.92701608e+00
7.28615729e+00
7.70829494e+00
7.51225711e+00
7.32865762e+00
6.92805315e+00
7.32859912e+00
7.51172910e+00
7.70725506e+00
8.51535369e+00
9.53622974e+00
9.31038942e+00
9.09573052e+00
8.12156858e+00
9.09567633e+00
9.31017592e+00
9.53635112e+00
1.05686142e+01
1.18171221e+01
1.15612890e+01
1.13174252e+01
1.01134908e+01
1.13173858e+01
1.15618781e+01
1.18175103e+01
1.30763368e+01
1.45434228e+01
1.42581151e+01
1.39845566e+01
1.25596465e+01
1.39862991e+01
1.42600864e+01
1.45451504e+01
1.60360086e+01
1.77384159e+01
1.74229622e+01
1.71201513e+01
1.54644269e+01
1.71190533e+01
1.74220446e+01
1.77384298e+01
1.85881696e+01
1.94967775e+01
1.91659312e+01
1.88509655e+01
1.79593306e+01
6.61496542e+00
6.96857114e+00
7.36930056e+00
7.38797097e+00
7.40653849e+00
7.00239780e+00
6.64859385e+00
6.63192485e+00
6.64870425e+00
7.00171550e+00
7.40663926e+00
7.44381313e+00
7.48125428e+00
7.07092710e+00
6.71636848e+00
6.68240426e+00
6.71643797e+00
7.07052557e+00
7.48130441e+00
7.51885776e+00
7.55671051e+00
7.14179385e+00
6.78511819e+00
6.75047102e+00
6.78513270e+00
7.14162875e+00
7.55672430e+00
7.59469558e+00
7.63300294e+00
7.21441461e+00
6.85532964e+00
6.81995665e+00
6.85530241e+00
7.21432296e+00
7.63295795e+00
7.67140022e+00
7.71049262e+00
7.28811151e+00
6.92678015e+00
6.89091813e+00
6.92691986e+00
7.28743871e+00
7.71069561e+00
8.09997184e+00
8.55334180e+00
8.09951259e+00
7.70809614e+00
7.28567626e+00
7.70748954e+00
8.09866062e+00
8.55269170e+00
9.41428698e+00
1.04997917e+01
9.98667100e+00
9.53635892e+00
8.51364134e+00
9.53649676e+00
9.98682951e+00
1.04997947e+01
1.15875448e+01
1.28987485e+01
1.23275019e+01
1.18175580e+01
1.05674238e+01
1.18180236e+01
1.23289127e+01
1.28984513e+01
1.42173389e+01
1.57469567e+01
1.51132404e+01
1.45434836e+01
1.30757036e+01
1.45453647e+01
1.51142272e+01
1.57465887e+01
1.72896163e+01
1.90608121e+01
1.83683230e+01
1.77388251e+01
1.60336002e+01
1.77383836e+01
1.83691547e+01
1.90612543e+01
1.99449551e+01
2.08790552e+01
2.01596800e+01
1.94968796e+01
1.85875559e+01
7.36971659e+00
7.89192389e+00
8.48907409e+00
8.51141101e+00
8.53244930e+00
7.92839992e+00
7.40681050e+00
7.38858048e+00
7.40664323e+00
7.92875571e+00
8.53219856e+00
8.57532456e+00
8.61903753e+00
8.00833503e+00
7.48110860e+00
7.44351454e+00
7.48117403e+00
8.00784603e+00
8.61912544e+00
8.66656520e+00
8.71474865e+00
8.09107261e+00
7.55668107e+00
7.51886206e+00
7.55673434e+00
8.09051628e+00
8.71481819e+00
8.76668925e+00
8.81915970e+00
8.17784615e+00
7.63307507e+00
7.59484011e+00
7.63278922e+00
8.17805966e+00
8.81905178e+00
8.87427101e+00
8.93075164e+00
8.26953066e+00
7.71053308e+00
7.67170442e+00
7.71109213e+00
8.26744196e+00
8.93129913e+00
9.23377171e+00
9.55397388e+00
9.54103701e+00
9.54092311e+00
9.01508882e+00
8.55319073e+00
8.09912026e+00
8.55315812e+00
9.01376021e+00
9.54075157e+00
1.04590555e+01
1.15576023e+01
1.15751518e+01
1.16083335e+01
1.10211917e+01
1.05004470e+01
9.41318589e+00
1.05002473e+01
1.10212683e+01
1.16083636e+01
1.27221402e+01
1.40159072e+01
1.40645767e+01
1.41306106e+01
1.34817558e+01
1.28990507e+01
1.15871109e+01
1.28989376e+01
1.34796434e+01
1.41321560e+01
1.54374933e+01
1.69264620e+01
1.70080123e+01
1.71040217e+01
1.63924015e+01
1.57475898e+01
1.42169758e+01
1.57469016e+01
1.63858028e+01
1.71069914e+01
1.85934605e+01
2.02824659e+01
2.04122628e+01
2.05345431e+01
1.97635788e+01
1.90614654e+01
1.72882794e+01
1.90608380e+01
1.97646667e+01
2.05284951e+01
2.11355528e+01
2.17740562e+01
2.18800552e+01
2.20191834e+01
2.21113497e+01
2.22489259e+01
2.23470404e+01
2.24749126e+01
2.25718953e+01
2.26862289e+01
2.27319252e+01
2.27819950e+01
2.17920624e+01
2.08785029e+01
1.99459630e+01
8.73145195e+00
8.85406838e+00
8.67705603e+00
8.73950465e+00
8.55377379e+00
8.64022504e+00
8.50353243e+00
8.54307395e+00
8.51591339e+00
9.09146741e+00
9.81820769e+00
1.00754620e+01
1.03874937e+01
1.02893750e+01
1.02402002e+01
9.88423039e+00
9.56988962e+00
9.24035401e+00
8.88882334e+00
8.94577672e+00
9.54283888e+00
9.53699837e+00
9.55645459e+00
9.89265116e+00
1.02437690e+01
1.10779644e+01
1.20281328e+01
1.21324958e+01
1.22859841e+01
1.19098379e+01
1.15576073e+01
1.04594798e+01
1.16078700e+01
1.15759013e+01
1.15576437e+01
1.19102122e+01
1.22854849e+01
1.28300116e+01
1.34103649e+01
1.41626985e+01
1.50115029e+01
1.49591987e+01
1.49107625e+01
1.44495415e+01
1.40154051e+01
1.27226637e+01
1.41300184e+01
1.40664198e+01
1.40157334e+01
1.44498550e+01
1.49106182e+01
1.60916994e+01
1.74057711e+01
1.75696205e+01
1.77651509e+01
1.73358385e+01
1.69254859e+01
1.54387030e+01
1.71011513e+01
1.70119295e+01
1.69250493e+01
1.73365266e+01
1.77665099e+01
1.80939841e+01
1.84454587e+01
1.92478556e+01
2.01263294e+01
2.06178267e+01
2.10733669e+01
2.11285851e+01
2.11666745e+01
2.07138772e+01
2.02786308e+01
1.86015482e+01
2.02869104e+01
2.07216366e+01
2.11695172e+01
2.18562405e+01
2.25592648e+01
2.32647874e+01
2.39900633e+01
2.28205044e+01
2.17685316e+01
2.11386160e+01
2.05308385e+01
2.04083175e+01
2.17676510e+01
2.28248528e+01
2.39882623e+01
2.41182883e+01
2.42499121e+01
2.30779043e+01
2.20098487e+01
2.18886233e+01
2.20102424e+01
2.30773919e+01
2.42500636e+01
2.43288323e+01
2.44085396e+01
2.32782361e+01
2.22432649e+01
2.21265975e+01
2.22435897e+01
2.32779039e+01
2.44086094e+01
2.44966069e+01
2.45842202e+01
2.34823926e+01
2.24668202e+01
2.23551180e+01
2.24668386e+01
2.34831224e+01
2.45841358e+01
2.46810797e+01
2.47777523e+01
2.36906432e+01
2.26813888e+01
2.25741274e+01
2.26818204e+01
2.36900573e+01
2.47781789e+01
2.48315258e+01
2.48847375e+01
2.37949533e+01
2.27844862e+01
2.27337411e+01
9.81065400e+00
1.03794899e+01
1.09973729e+01
1.11687223e+01
1.13390502e+01
1.13534949e+01
1.13636697e+01
1.08568510e+01
1.03824546e+01
1.00889628e+01
1.02468152e+01
1.02815419e+01
1.03849638e+01
1.08398623e+01
1.13681329e+01
1.17044403e+01
1.20803475e+01
1.24176604e+01
1.27851100e+01
1.28369043e+01
1.28042608e+01
1.24115398e+01
1.20216694e+01
1.10854376e+01
1.20269599e+01
1.24044390e+01
1.28059724e+01
1.32667974e+01
1.37571344e+01
1.40968850e+01
1.44630084e+01
1.44623284e+01
1.44674783e+01
1.39213347e+01
1.34109896e+01
1.28311048e+01
1.22853716e+01
1.21342337e+01
1.34105453e+01
1.39215367e+01
1.44676939e+01
1.53295342e+01
1.62697633e+01
1.62872093e+01
1.63141299e+01
1.56379267e+01
1.50115602e+01
1.41624452e+01
1.49108020e+01
1.49592225e+01
1.50114662e+01
1.56378150e+01
1.63141468e+01
1.72636392e+01
1.82933054e+01
1.83293555e+01
1.83745591e+01
1.78778937e+01
1.74059923e+01
1.60911759e+01
1.74059019e+01
1.78781361e+01
1.83744788e+01
1.94139699e+01
2.05309708e+01
2.05410051e+01
2.05577904e+01
1.94447156e+01
1.84400108e+01
1.80974629e+01
1.77655377e+01
1.75693719e+01
1.84399543e+01
1.94449109e+01
2.05577018e+01
2.10711124e+01
2.16105048e+01
2.08443690e+01
2.01304588e+01
1.92581536e+01
2.01299540e+01
2.08477680e+01
2.16087086e+01
2.23021141e+01
2.30197851e+01
2.31069488e+01
2.31233898e+01
2.20590596e+01
2.10782235e+01
2.06039247e+01
2.11709116e+01
2.11201860e+01
2.10824063e+01
2.20541245e+01
2.31229468e+01
2.37390048e+01
2.43967583e+01
2.34342645e+01
2.25617370e+01
2.18481139e+01
2.25583421e+01
2.34454284e+01
2.43918236e+01
2.50315647e+01
2.56917408e+01
2.58182223e+01
2.59489019e+01
2.50738881e+01
2.42504130e+01
2.41111547e+01
2.39928751e+01
2.32652410e+01
2.44065957e+01
2.43309022e+01
2.42502853e+01
2.50737554e+01
2.59488573e+01
2.63235450e+01
2.67068323e+01
2.57689022e+01
2.48856085e+01
2.48263722e+01
2.47788661e+01
2.46831971e+01
2.45834334e+01
2.45008336e+01
1.09988691e+01
1.16317353e+01
1.23192379e+01
1.23385414e+01
1.23695751e+01
1.24152778e+01
1.24568858e+01
1.24999497e+01
1.25313754e+01
1.25656377e+01
1.25949766e+01
1.19418981e+01
1.13404514e+01
1.11653604e+01
1.13404960e+01
1.19420308e+01
1.25951042e+01
1.26600495e+01
1.27459734e+01
1.31493127e+01
1.35733871e+01
1.27954293e+01
1.20767804e+01
1.17112118e+01
1.13660783e+01
1.13511881e+01
1.20817151e+01
1.27842654e+01
1.35767820e+01
1.40569641e+01
1.45735671e+01
1.45228414e+01
1.44850617e+01
1.35875323e+01
1.27871069e+01
1.24135632e+01
1.28096090e+01
1.28339409e+01
1.27875500e+01
1.35924674e+01
1.44808790e+01
1.47762704e+01
1.50719899e+01
1.43917951e+01
1.37547269e+01
1.32700352e+01
1.37565232e+01
1.43883961e+01
1.50724946e+01
1.57395698e+01
1.64607510e+01
1.54079644e+01
1.44630120e+01
1.40967768e+01
1.44676970e+01
1.44620233e+01
1.44631006e+01
1.54077690e+01
1.64608074e+01
1.67779940e+01
1.71058033e+01
1.71609649e+01
1.72488222e+01
1.67471627e+01
1.62696118e+01
1.53298994e+01
1.63141020e+01
1.62873203e+01
1.62696921e+01
1.67469204e+01
1.72489126e+01
1.85259102e+01
1.99373502e+01
1.98601070e+01
1.97866870e+01
1.90150271e+01
1.82933501e+01
1.72636392e+01
1.83746304e+01
1.83292446e+01
1.82933333e+01
1.90151388e+01
1.97867811e+01
2.07754977e+01
2.18614295e+01
2.11786157e+01
2.05309677e+01
1.94136047e+01
2.05576981e+01
2.05413101e+01
2.05307521e+01
2.11784137e+01
2.18618738e+01
2.26642898e+01
2.35008573e+01
2.37738345e+01
2.40906757e+01
2.35413850e+01
2.30161485e+01
2.22988763e+01
2.16111160e+01
2.10712207e+01
2.31209498e+01
2.31099123e+01
2.30144370e+01
2.35484858e+01
2.40853852e+01
2.56624276e+01
2.73370792e+01
2.72304343e+01
2.71924845e+01
2.64064539e+01
2.56937954e+01
2.50247931e+01
2.43953907e+01
2.37431019e+01
2.59474561e+01
2.58205291e+01
2.56893322e+01
2.64234426e+01
2.71899753e+01
2.79175011e+01
2.86602099e+01
2.76582495e+01
2.67053361e+01
2.63269068e+01
1.23183669e+01
1.31920781e+01
1.41451064e+01
1.41729012e+01
1.41995203e+01
1.32442617e+01
1.23688879e+01
1.23436950e+01
1.23684613e+01
1.32448476e+01
1.41990886e+01
1.42593841e+01
1.43196521e+01
1.33462554e+01
1.24575882e+01
1.24131604e+01
1.24576726e+01
1.33455255e+01
1.43196338e+01
1.43859499e+01
1.44524399e+01
1.34447189e+01
1.25333892e+01
1.24957230e+01
1.25333194e+01
1.34450511e+01
1.44521151e+01
1.45239433e+01
1.45960838e+01
1.35426582e+01
1.25947549e+01
1.25635679e+01
1.25946034e+01
1.35431706e+01
1.45956900e+01
1.46734374e+01
1.47514379e+01
1.36932954e+01
1.27413606e+01
1.26671831e+01
1.27431616e+01
1.36889470e+01
1.47523185e+01
1.51695900e+01
1.56089995e+01
1.55388489e+01
1.54698121e+01
1.50144151e+01
1.45721726e+01
1.40650907e+01
1.35743098e+01
1.31488590e+01
1.50683652e+01
1.47901723e+01
1.44760223e+01
1.45312406e+01
1.45693299e+01
1.50066558e+01
1.54615325e+01
1.67165926e+01
1.81483383e+01
1.81114869e+01
1.80769770e+01
1.75826233e+01
1.71067754e+01
1.67745152e+01
1.64662553e+01
1.57292718e+01
1.72486915e+01
1.71612135e+01
1.71054164e+01
1.75819352e+01
1.80774137e+01
1.95227734e+01
2.11462316e+01
2.11350033e+01
2.11366873e+01
2.05236060e+01
1.99371664e+01
1.85264337e+01
1.97867237e+01
1.98600832e+01
1.99373108e+01
2.05232926e+01
2.11363590e+01
2.27757602e+01
2.45931092e+01
2.46135108e+01
2.46476236e+01
2.40629450e+01
2.35009707e+01
2.26631966e+01
2.18612491e+01
2.07757510e+01
2.40918486e+01
2.37720966e+01
2.35014699e+01
2.40625707e+01
2.46475872e+01
2.64816024e+01
2.84971041e+01
2.85436339e+01
2.86154605e+01
2.79672861e+01
2.73340331e+01
2.56549543e+01
2.71950144e+01
2.72382674e+01
2.73304643e+01
2.79588654e+01
2.86288955e+01
2.93465470e+01
3.00422034e+01
3.02981296e+01
3.02827776e+01
3.05938895e+01
3.06053727e+01
3.08458397e+01
3.08381272e+01
3.10921353e+01
3.11229995e+01
3.12410809e+01
3.12924601e+01
2.99045187e+01
2.86677636e+01
2.79040003e+01
1.46050247e+01
1.45086955e+01
1.44577761e+01
1.43778723e+01
1.43277262e+01
1.42571520e+01
1.42039287e+01
1.41710852e+01
1.41426152e+01
1.51161780e+01
1.61661139e+01
1.67258305e+01
1.73329620e+01
1.64398092e+01
1.56066561e+01
1.51665268e+01
1.47578431e+01
1.46648693e+01
1.54653676e+01
1.55427942e+01
1.56127042e+01
1.64387213e+01
1.73335895e+01
1.85449165e+01
1.99880516e+01
1.90299714e+01
1.81541784e+01
1.67085049e+01
1.80783897e+01
1.81075698e+01
1.81512087e+01
1.90365700e+01
1.99887399e+01
2.14426389e+01
2.31091137e+01
2.20928380e+01
2.11483692e+01
1.95215637e+01
2.11368611e+01
2.11331602e+01
2.11468237e+01
2.20949504e+01
2.31092268e+01
2.47818000e+01
2.66794495e+01
2.56034890e+01
2.45936028e+01
2.27752366e+01
2.46475821e+01
2.46127613e+01
2.45935726e+01
2.56034123e+01
2.66796492e+01
2.85769011e+01
3.07013863e+01
2.95650069e+01
2.84950168e+01
2.64811780e+01
2.86129798e+01
2.85476726e+01
2.84951883e+01
2.95663355e+01
3.07014189e+01
3.18181448e+01
3.30009130e+01
3.14890424e+01
3.00846792e+01
2.93399647e+01
3.00841317e+01
3.14911311e+01
3.30003539e+01
3.31186049e+01
3.32367693e+01
3.17557125e+01
3.03703774e+01
3.02266238e+01
3.03704853e+01
3.17554990e+01
3.32370552e+01
3.33558999e+01
3.34748737e+01
3.20137443e+01
3.06431349e+01
3.05065104e+01
3.06430654e+01
3.20143007e+01
3.34748205e+01
3.35940811e+01
3.37134727e+01
3.22661721e+01
3.09034789e+01
3.07729003e+01
3.09033909e+01
3.22666611e+01
3.37134073e+01
3.38328928e+01
3.39531012e+01
3.25117182e+01
3.11516657e+01
3.10272348e+01
3.11519164e+01
3.25113624e+01
3.39532684e+01
3.40135782e+01
3.40732541e+01
3.26319660e+01
3.12656208e+01
3.12094179e+01
1.61666662e+01
1.70180873e+01
1.79260833e+01
1.85090160e+01
1.91521003e+01
1.82120750e+01
1.73333784e+01
1.67248226e+01
1.73329361e+01
1.82112434e+01
1.91525418e+01
2.04318300e+01
2.19281074e+01
2.09261736e+01
1.99877388e+01
1.85462534e+01
1.99881068e+01
2.09251868e+01
2.19262263e+01
2.34429593e+01
2.51697924e+01
2.41098851e+01
2.31086274e+01
2.14430020e+01
2.31089247e+01
2.41084743e+01
2.51693268e+01
2.69037056e+01
2.88572916e+01
2.77368280e+01
2.66789969e+01
2.47822339e+01
2.66789939e+01
2.77366695e+01
2.88571537e+01
3.08189492e+01
3.29973104e+01
3.18176851e+01
3.07009199e+01
2.85780022e+01
3.07015700e+01
3.18185371e+01
3.29979170e+01
3.41462934e+01
3.53583334e+01
3.41480559e+01
3.30005165e+01
3.18189964e+01
3.30003135e+01
3.41487287e+01
3.53581937e+01
3.54794113e+01
3.56008752e+01
3.43890994e+01
3.32369381e+01
3.31183007e+01
3.32369831e+01
3.43891911e+01
3.56009024e+01
3.57226091e+01
3.58448647e+01
3.46305645e+01
3.34748637e+01
3.33557553e+01
3.34748499e+01
3.46307296e+01
3.58448502e+01
3.59672827e+01
3.60903293e+01
3.48736206e+01
3.37136031e+01
3.35940768e+01
3.37135529e+01
3.48740221e+01
3.60902598e+01
3.62133752e+01
3.63367548e+01
3.51189698e+01
3.39530972e+01
3.38331914e+01
3.39529964e+01
3.51196520e+01
3.63366444e+01
3.63985152e+01
3.64600956e+01
3.52429050e+01
3.40728381e+01
3.40129687e+01
1.79259811e+01
1.83805331e+01
1.88509655e+01
1.94515871e+01
2.01035663e+01
1.96211594e+01
1.91521465e+01
1.85096297e+01
1.91521326e+01
1.96220771e+01
2.01046643e+01
2.14334529e+01
2.29398382e+01
2.24282273e+01
2.19278932e+01
2.04342384e+01
2.19261655e+01
2.24262560e+01
2.29380957e+01
2.44976986e+01
2.62399509e+01
2.56990450e+01
2.51692791e+01
2.34435925e+01
2.51688909e+01
2.56984560e+01
2.62399903e+01
2.80205689e+01
2.99872675e+01
2.94163689e+01
2.88571459e+01
2.69048960e+01
2.88570246e+01
2.94165824e+01
2.99873217e+01
3.19976728e+01
3.41892163e+01
3.35869481e+01
3.29970759e+01
3.08206615e+01
3.29981158e+01
3.35874761e+01
3.41892748e+01
3.53594667e+01
3.65828372e+01
3.59620744e+01
3.53584296e+01
3.41467745e+01
3.53584370e+01
3.59626541e+01
3.65825054e+01
3.67050156e+01
3.68284827e+01
3.62066859e+01
3.56010794e+01
3.54795341e+01
3.56010854e+01
3.62066867e+01
3.68284664e+01
3.69518982e+01
3.70759054e+01
3.64525067e+01
3.58449957e+01
3.57226704e+01
3.58449740e+01
3.64525604e+01
3.70758916e+01
3.71999480e+01
3.73244155e+01
3.66996639e+01
3.60903367e+01
3.59673800e+01
3.60903289e+01
3.66997017e+01
3.73244231e+01
3.74489557e+01
3.75744014e+01
3.69479952e+01
3.63365869e+01
3.62133225e+01
3.63364910e+01
3.69482746e+01
3.75743138e+01
3.76370702e+01
3.76996704e+01
3.70734202e+01
3.64597489e+01
3.63980780e+01
 
