# vtk DataFile Version 3.0 
Date: 3/21/2016   Time: 14:2
ASCII 
DATASET UNSTRUCTURED_GRID 
 
POINTS 1072 float 
0.000000 0.000000 0.000000 
0.025000 0.000000 0.000000 
0.050000 0.000000 0.000000 
0.050000 0.002500 0.000000 
0.050000 0.005000 0.000000 
0.025000 0.005000 0.000000 
0.000000 0.005000 0.000000 
0.000000 0.002500 0.000000 
0.000000 0.005000 0.000000 
0.025000 0.005000 0.000000 
0.050000 0.005000 0.000000 
0.050000 0.010000 0.000000 
0.050000 0.015000 0.000000 
0.025000 0.015000 0.000000 
0.000000 0.015000 0.000000 
0.000000 0.010000 0.000000 
0.000000 0.015000 0.000000 
0.025000 0.015000 0.000000 
0.050000 0.015000 0.000000 
0.050000 0.020000 0.000000 
0.050000 0.025000 0.000000 
0.025000 0.025000 0.000000 
0.000000 0.025000 0.000000 
0.000000 0.020000 0.000000 
0.000000 0.025000 0.000000 
0.025000 0.025000 0.000000 
0.050000 0.025000 0.000000 
0.050000 0.030000 0.000000 
0.050000 0.035000 0.000000 
0.025000 0.035000 0.000000 
0.000000 0.035000 0.000000 
0.000000 0.030000 0.000000 
0.000000 0.035000 0.000000 
0.025000 0.035000 0.000000 
0.050000 0.035000 0.000000 
0.050000 0.040000 0.000000 
0.050000 0.045000 0.000000 
0.025000 0.045000 0.000000 
0.000000 0.045000 0.000000 
0.000000 0.040000 0.000000 
0.000000 0.045000 0.000000 
0.025000 0.045000 0.000000 
0.050000 0.045000 0.000000 
0.050000 0.095000 0.000000 
0.050000 0.145000 0.000000 
0.025000 0.145000 0.000000 
0.000000 0.145000 0.000000 
0.000000 0.095000 0.000000 
0.000000 0.145000 0.000000 
0.025000 0.145000 0.000000 
0.050000 0.145000 0.000000 
0.050000 0.240000 0.000000 
0.050000 0.335000 0.000000 
0.025000 0.335000 0.000000 
0.000000 0.335000 0.000000 
0.000000 0.240000 0.000000 
0.000000 0.335000 0.000000 
0.025000 0.335000 0.000000 
0.050000 0.335000 0.000000 
0.050000 0.430000 0.000000 
0.050000 0.525000 0.000000 
0.025000 0.525000 0.000000 
0.000000 0.525000 0.000000 
0.000000 0.430000 0.000000 
0.000000 0.525000 0.000000 
0.025000 0.525000 0.000000 
0.050000 0.525000 0.000000 
0.050000 0.620000 0.000000 
0.050000 0.715000 0.000000 
0.025000 0.715000 0.000000 
0.000000 0.715000 0.000000 
0.000000 0.620000 0.000000 
0.000000 0.715000 0.000000 
0.025000 0.715000 0.000000 
0.050000 0.715000 0.000000 
0.050000 0.810000 0.000000 
0.050000 0.905000 0.000000 
0.025000 0.905000 0.000000 
0.000000 0.905000 0.000000 
0.000000 0.810000 0.000000 
0.000000 0.905000 0.000000 
0.025000 0.905000 0.000000 
0.050000 0.905000 0.000000 
0.050000 0.952500 0.000000 
0.050000 1.000000 0.000000 
0.025000 1.000000 0.000000 
0.000000 1.000000 0.000000 
0.000000 0.952500 0.000000 
0.050000 0.000000 0.000000 
0.100000 0.000000 0.000000 
0.150000 0.000000 0.000000 
0.150000 0.002500 0.000000 
0.150000 0.005000 0.000000 
0.100000 0.005000 0.000000 
0.050000 0.005000 0.000000 
0.050000 0.002500 0.000000 
0.050000 0.005000 0.000000 
0.100000 0.005000 0.000000 
0.150000 0.005000 0.000000 
0.150000 0.010000 0.000000 
0.150000 0.015000 0.000000 
0.100000 0.015000 0.000000 
0.050000 0.015000 0.000000 
0.050000 0.010000 0.000000 
0.050000 0.015000 0.000000 
0.100000 0.015000 0.000000 
0.150000 0.015000 0.000000 
0.150000 0.020000 0.000000 
0.150000 0.025000 0.000000 
0.100000 0.025000 0.000000 
0.050000 0.025000 0.000000 
0.050000 0.020000 0.000000 
0.050000 0.025000 0.000000 
0.100000 0.025000 0.000000 
0.150000 0.025000 0.000000 
0.150000 0.030000 0.000000 
0.150000 0.035000 0.000000 
0.100000 0.035000 0.000000 
0.050000 0.035000 0.000000 
0.050000 0.030000 0.000000 
0.050000 0.035000 0.000000 
0.100000 0.035000 0.000000 
0.150000 0.035000 0.000000 
0.150000 0.040000 0.000000 
0.150000 0.045000 0.000000 
0.100000 0.045000 0.000000 
0.050000 0.045000 0.000000 
0.050000 0.040000 0.000000 
0.050000 0.045000 0.000000 
0.100000 0.045000 0.000000 
0.150000 0.045000 0.000000 
0.150000 0.095000 0.000000 
0.150000 0.145000 0.000000 
0.100000 0.145000 0.000000 
0.050000 0.145000 0.000000 
0.050000 0.095000 0.000000 
0.050000 0.145000 0.000000 
0.100000 0.145000 0.000000 
0.150000 0.145000 0.000000 
0.150000 0.240000 0.000000 
0.150000 0.335000 0.000000 
0.100000 0.335000 0.000000 
0.050000 0.335000 0.000000 
0.050000 0.240000 0.000000 
0.050000 0.335000 0.000000 
0.100000 0.335000 0.000000 
0.150000 0.335000 0.000000 
0.150000 0.430000 0.000000 
0.150000 0.525000 0.000000 
0.100000 0.525000 0.000000 
0.050000 0.525000 0.000000 
0.050000 0.430000 0.000000 
0.050000 0.525000 0.000000 
0.100000 0.525000 0.000000 
0.150000 0.525000 0.000000 
0.150000 0.620000 0.000000 
0.150000 0.715000 0.000000 
0.100000 0.715000 0.000000 
0.050000 0.715000 0.000000 
0.050000 0.620000 0.000000 
0.050000 0.715000 0.000000 
0.100000 0.715000 0.000000 
0.150000 0.715000 0.000000 
0.150000 0.810000 0.000000 
0.150000 0.905000 0.000000 
0.100000 0.905000 0.000000 
0.050000 0.905000 0.000000 
0.050000 0.810000 0.000000 
0.050000 0.905000 0.000000 
0.100000 0.905000 0.000000 
0.150000 0.905000 0.000000 
0.150000 0.952500 0.000000 
0.150000 1.000000 0.000000 
0.100000 1.000000 0.000000 
0.050000 1.000000 0.000000 
0.050000 0.952500 0.000000 
0.150000 0.000000 0.000000 
0.212500 0.000000 0.000000 
0.275000 0.000000 0.000000 
0.275000 0.002500 0.000000 
0.275000 0.005000 0.000000 
0.212500 0.005000 0.000000 
0.150000 0.005000 0.000000 
0.150000 0.002500 0.000000 
0.150000 0.005000 0.000000 
0.212500 0.005000 0.000000 
0.275000 0.005000 0.000000 
0.275334 0.010000 0.000000 
0.275667 0.015000 0.000000 
0.212834 0.015000 0.000000 
0.150000 0.015000 0.000000 
0.150000 0.010000 0.000000 
0.150000 0.015000 0.000000 
0.212834 0.015000 0.000000 
0.275667 0.015000 0.000000 
0.276334 0.020000 0.000000 
0.277000 0.025000 0.000000 
0.213500 0.025000 0.000000 
0.150000 0.025000 0.000000 
0.150000 0.020000 0.000000 
0.150000 0.025000 0.000000 
0.213500 0.025000 0.000000 
0.277000 0.025000 0.000000 
0.278000 0.030000 0.000000 
0.279000 0.035000 0.000000 
0.214500 0.035000 0.000000 
0.150000 0.035000 0.000000 
0.150000 0.030000 0.000000 
0.150000 0.035000 0.000000 
0.214500 0.035000 0.000000 
0.279000 0.035000 0.000000 
0.280334 0.040000 0.000000 
0.281667 0.045000 0.000000 
0.215834 0.045000 0.000000 
0.150000 0.045000 0.000000 
0.150000 0.040000 0.000000 
0.150000 0.045000 0.000000 
0.215834 0.045000 0.000000 
0.281667 0.045000 0.000000 
0.290000 0.070000 0.000000 
0.298333 0.095000 0.000000 
0.275000 0.120000 0.000000 
0.251667 0.145000 0.000000 
0.200834 0.145000 0.000000 
0.150000 0.145000 0.000000 
0.150000 0.095000 0.000000 
0.150000 0.145000 0.000000 
0.200834 0.145000 0.000000 
0.251667 0.145000 0.000000 
0.275000 0.215000 0.000000 
0.298333 0.285000 0.000000 
0.275000 0.310000 0.000000 
0.251667 0.335000 0.000000 
0.200834 0.335000 0.000000 
0.150000 0.335000 0.000000 
0.150000 0.240000 0.000000 
0.150000 0.335000 0.000000 
0.200834 0.335000 0.000000 
0.251667 0.335000 0.000000 
0.275000 0.405000 0.000000 
0.298333 0.475000 0.000000 
0.275000 0.500000 0.000000 
0.251667 0.525000 0.000000 
0.200834 0.525000 0.000000 
0.150000 0.525000 0.000000 
0.150000 0.430000 0.000000 
0.150000 0.525000 0.000000 
0.200834 0.525000 0.000000 
0.251667 0.525000 0.000000 
0.275000 0.595000 0.000000 
0.298333 0.665000 0.000000 
0.275000 0.690000 0.000000 
0.251667 0.715000 0.000000 
0.200834 0.715000 0.000000 
0.150000 0.715000 0.000000 
0.150000 0.620000 0.000000 
0.150000 0.715000 0.000000 
0.200834 0.715000 0.000000 
0.251667 0.715000 0.000000 
0.275000 0.785000 0.000000 
0.298333 0.855000 0.000000 
0.275000 0.880000 0.000000 
0.251667 0.905000 0.000000 
0.200834 0.905000 0.000000 
0.150000 0.905000 0.000000 
0.150000 0.810000 0.000000 
0.150000 0.905000 0.000000 
0.200834 0.905000 0.000000 
0.251667 0.905000 0.000000 
0.260000 0.930000 0.000000 
0.268333 0.955000 0.000000 
0.269667 0.960000 0.000000 
0.271000 0.965000 0.000000 
0.272000 0.970000 0.000000 
0.273000 0.975000 0.000000 
0.273667 0.980000 0.000000 
0.274333 0.985000 0.000000 
0.274667 0.990000 0.000000 
0.275000 0.995000 0.000000 
0.275000 0.997500 0.000000 
0.275000 1.000000 0.000000 
0.212500 1.000000 0.000000 
0.150000 1.000000 0.000000 
0.150000 0.952500 0.000000 
0.279000 0.035000 0.000000 
0.278000 0.030000 0.000000 
0.277000 0.025000 0.000000 
0.276334 0.020000 0.000000 
0.275667 0.015000 0.000000 
0.275334 0.010000 0.000000 
0.275000 0.005000 0.000000 
0.275000 0.002500 0.000000 
0.275000 0.000000 0.000000 
0.337500 0.000000 0.000000 
0.400000 0.000000 0.000000 
0.400000 0.032500 0.000000 
0.400000 0.065000 0.000000 
0.380500 0.080000 0.000000 
0.361000 0.095000 0.000000 
0.329666 0.095000 0.000000 
0.298333 0.095000 0.000000 
0.290000 0.070000 0.000000 
0.281667 0.045000 0.000000 
0.280334 0.040000 0.000000 
0.251667 0.145000 0.000000 
0.275000 0.120000 0.000000 
0.298333 0.095000 0.000000 
0.329666 0.095000 0.000000 
0.361000 0.095000 0.000000 
0.391000 0.145000 0.000000 
0.421000 0.195000 0.000000 
0.389500 0.240000 0.000000 
0.358000 0.285000 0.000000 
0.328167 0.285000 0.000000 
0.298333 0.285000 0.000000 
0.275000 0.215000 0.000000 
0.251667 0.335000 0.000000 
0.275000 0.310000 0.000000 
0.298333 0.285000 0.000000 
0.328167 0.285000 0.000000 
0.358000 0.285000 0.000000 
0.382000 0.305000 0.000000 
0.406000 0.325000 0.000000 
0.399500 0.390000 0.000000 
0.393000 0.455000 0.000000 
0.379000 0.465000 0.000000 
0.365000 0.475000 0.000000 
0.331666 0.475000 0.000000 
0.298333 0.475000 0.000000 
0.275000 0.405000 0.000000 
0.251667 0.525000 0.000000 
0.275000 0.500000 0.000000 
0.298333 0.475000 0.000000 
0.331666 0.475000 0.000000 
0.365000 0.475000 0.000000 
0.392500 0.530000 0.000000 
0.420000 0.585000 0.000000 
0.388000 0.625000 0.000000 
0.356000 0.665000 0.000000 
0.327167 0.665000 0.000000 
0.298333 0.665000 0.000000 
0.275000 0.595000 0.000000 
0.251667 0.715000 0.000000 
0.275000 0.690000 0.000000 
0.298333 0.665000 0.000000 
0.327167 0.665000 0.000000 
0.356000 0.665000 0.000000 
0.367000 0.675000 0.000000 
0.378000 0.685000 0.000000 
0.392000 0.720000 0.000000 
0.406000 0.755000 0.000000 
0.395500 0.790000 0.000000 
0.385000 0.825000 0.000000 
[...]
CELL_DATA 110
FIELD FieldData 1
material 1 110 int
1
1
1
1
1
1
1
1
1
1
1
1
1
1
1
1
1
1
1
1
1
1
1
1
1
1
1
1
1
1
1
1
1
1
1
1
1
1
1
1
1
1
1
1
1
1
1
1
1
1
1
1
1
1
1
1
1
1
1
1
1
1
1
1
1
1
1
1
1
1
1
1
1
1
1
1
1
1
1
1
1
1
1
1
1
1
1
1
1
1
1
1
1
1
1
1
1
1
1
1
1
1
1
1
1
1
1
1
1
1
POINT_DATA 1072 SCALARS flux_g1 double 
LOOKUP_TABLE   default 
6.28371552e+00
6.44314058e+00
6.61458956e+00
6.63133306e+00
6.64840712e+00
6.47479601e+00
6.31546585e+00
6.29956599e+00
6.31551996e+00
6.47460129e+00
6.64852510e+00
6.68232557e+00
6.71643525e+00
6.54039007e+00
6.37972135e+00
6.34710513e+00
6.37970998e+00
6.54042285e+00
6.71644116e+00
6.75046709e+00
6.78518114e+00
6.60742707e+00
6.44536955e+00
6.41231498e+00
6.44541043e+00
6.60736549e+00
6.78519876e+00
6.81997364e+00
6.85555701e+00
6.67565043e+00
6.51210261e+00
6.47841656e+00
6.51211201e+00
6.67561787e+00
6.85557186e+00
6.89109734e+00
6.92711041e+00
6.74578350e+00
6.58037659e+00
6.54575720e+00
6.58060959e+00
6.74472510e+00
6.92696368e+00
7.28568064e+00
7.70866471e+00
7.51165957e+00
7.32877240e+00
6.92930976e+00
7.32877101e+00
7.51008634e+00
7.70763286e+00
8.51480653e+00
9.53643581e+00
9.30849632e+00
9.09563296e+00
8.12555893e+00
9.09563550e+00
9.30825911e+00
9.53652079e+00
1.05686364e+01
1.18171623e+01
1.15585751e+01
1.13163107e+01
1.01185132e+01
1.13162559e+01
1.15584699e+01
1.18170917e+01
1.30752811e+01
1.45504555e+01
1.42626062e+01
1.39904028e+01
1.25653753e+01
1.39902387e+01
1.42629262e+01
1.45502321e+01
1.60360848e+01
1.77356876e+01
1.74183893e+01
1.71178806e+01
1.54675009e+01
1.71181305e+01
1.74200066e+01
1.77367681e+01
1.85880546e+01
1.94971075e+01
1.91657191e+01
1.88508439e+01
1.79611920e+01
6.61489178e+00
6.96899841e+00
7.36929914e+00
7.38769030e+00
7.40632938e+00
7.00247490e+00
6.64854632e+00
6.63169149e+00
6.64866885e+00
7.00225292e+00
7.40644067e+00
7.44363778e+00
7.48148044e+00
7.07064637e+00
6.71638259e+00
6.68217408e+00
6.71641299e+00
7.07056964e+00
7.48152941e+00
7.51895933e+00
7.55679691e+00
7.14184810e+00
6.78505429e+00
6.75026735e+00
6.78504192e+00
7.14187493e+00
7.55678547e+00
7.59456140e+00
7.63285591e+00
7.21449923e+00
6.85531111e+00
6.81983568e+00
6.85533289e+00
7.21445457e+00
7.63287564e+00
7.67121885e+00
7.71028271e+00
7.28807565e+00
6.92675417e+00
6.89081257e+00
6.92662769e+00
7.28760021e+00
7.71047069e+00
8.09995861e+00
8.55339932e+00
8.09940776e+00
7.70842792e+00
7.28571621e+00
7.70764686e+00
8.09805658e+00
8.55308107e+00
9.41417882e+00
1.04999107e+01
9.98645950e+00
9.53648948e+00
8.51452705e+00
9.53655355e+00
9.98599742e+00
1.04999128e+01
1.15874100e+01
1.28996100e+01
1.23274510e+01
1.18174435e+01
1.05687208e+01
1.18173501e+01
1.23273610e+01
1.28995303e+01
1.42129891e+01
1.57527233e+01
1.51195700e+01
1.45504936e+01
1.30754220e+01
1.45503753e+01
1.51197526e+01
1.57527639e+01
1.72938371e+01
1.90586162e+01
1.83646248e+01
1.77357435e+01
1.60355079e+01
1.77367247e+01
1.83658041e+01
1.90593300e+01
1.99415786e+01
2.08803624e+01
2.01619433e+01
1.94970695e+01
1.85873463e+01
7.36940217e+00
7.89353553e+00
8.48897504e+00
8.50941058e+00
8.52988585e+00
7.93040358e+00
7.40638897e+00
7.38779954e+00
7.40647369e+00
7.93024646e+00
8.52996947e+00
8.57410678e+00
8.61886012e+00
8.00753913e+00
7.48138846e+00
7.44364740e+00
7.48147151e+00
8.00737604e+00
8.61893766e+00
8.66663795e+00
8.71516789e+00
8.09004076e+00
7.55673692e+00
7.51883809e+00
7.55674829e+00
8.09002177e+00
8.71518140e+00
8.76686319e+00
8.81934845e+00
8.17740809e+00
7.63288314e+00
7.59450130e+00
7.63290146e+00
8.17738843e+00
8.81935424e+00
8.87524942e+00
8.93201653e+00
8.26881654e+00
7.71036268e+00
7.67131643e+00
7.71058958e+00
8.26814871e+00
8.93233342e+00
9.23156712e+00
9.55474228e+00
9.54042787e+00
9.54119563e+00
9.01499270e+00
8.55351394e+00
8.09910635e+00
8.55331212e+00
9.01387735e+00
9.54090642e+00
1.04591942e+01
1.15574551e+01
1.15749844e+01
1.16087588e+01
1.10213415e+01
1.05003052e+01
9.41360123e+00
1.05002238e+01
1.10218000e+01
1.16082940e+01
1.27223924e+01
1.40156265e+01
1.40652543e+01
1.41306188e+01
1.34822527e+01
1.28996121e+01
1.15869846e+01
1.28995071e+01
1.34823953e+01
1.41303658e+01
1.54387918e+01
1.69253407e+01
1.70067421e+01
1.71037436e+01
1.63950811e+01
1.57529661e+01
1.42127749e+01
1.57529659e+01
1.63949003e+01
1.71037286e+01
1.86073879e+01
2.02907332e+01
2.04038274e+01
2.05323071e+01
1.97624800e+01
1.90590290e+01
1.72932526e+01
1.90596898e+01
1.97629801e+01
2.05325605e+01
2.11392620e+01
2.17697618e+01
2.18907396e+01
2.20101917e+01
2.21274703e+01
2.22443119e+01
2.23565305e+01
2.24679974e+01
2.25758129e+01
2.26832342e+01
2.27313962e+01
2.27839373e+01
2.17928325e+01
2.08803625e+01
1.99409578e+01
8.81927684e+00
8.76738039e+00
8.71596312e+00
8.66803713e+00
8.61927328e+00
8.57591453e+00
8.53154920e+00
8.50858307e+00
8.48955353e+00
9.10842833e+00
9.80479354e+00
1.00929239e+01
1.04067591e+01
1.03216548e+01
1.02454792e+01
9.88753436e+00
9.55449463e+00
9.23166780e+00
8.93321165e+00
8.87680189e+00
9.54102586e+00
9.54098742e+00
9.55463283e+00
9.88738467e+00
1.02454003e+01
1.10745289e+01
1.20275480e+01
1.21352860e+01
1.22852067e+01
1.19094568e+01
1.15575291e+01
1.04592808e+01
1.16084056e+01
1.15760867e+01
1.15570686e+01
1.19101977e+01
1.22848726e+01
1.28296298e+01
1.34104704e+01
1.41628695e+01
1.50113187e+01
1.49589491e+01
1.49110401e+01
1.44492140e+01
1.40157835e+01
1.27221450e+01
1.41302903e+01
1.40663879e+01
1.40152267e+01
1.44497591e+01
1.49107878e+01
1.60921512e+01
1.74056557e+01
1.75689393e+01
1.77660086e+01
1.73347293e+01
1.69254584e+01
1.54385689e+01
1.71036490e+01
1.70075772e+01
1.69253204e+01
1.73351975e+01
1.77658608e+01
1.80991586e+01
1.84404903e+01
1.92599661e+01
2.01270677e+01
2.05986249e+01
2.10947759e+01
2.11355817e+01
2.11830471e+01
2.07262995e+01
2.02905372e+01
1.86078133e+01
2.02903889e+01
2.07265823e+01
2.11830224e+01
2.18583339e+01
2.25611457e+01
2.32618364e+01
2.39906971e+01
2.28245551e+01
2.17688253e+01
2.11394465e+01
2.05326879e+01
2.04035705e+01
2.17686582e+01
2.28250156e+01
2.39904727e+01
2.41205245e+01
2.42514238e+01
2.30770161e+01
2.20106331e+01
2.18892189e+01
2.20106328e+01
2.30770034e+01
2.42514286e+01
2.43298934e+01
2.44088991e+01
2.32776046e+01
2.22436589e+01
2.21267463e+01
2.22436440e+01
2.32776223e+01
2.44088885e+01
2.44965016e+01
2.45846753e+01
2.34819741e+01
2.24674229e+01
2.23551486e+01
2.24673516e+01
2.34821115e+01
2.45846031e+01
2.46812373e+01
2.47784633e+01
2.36908489e+01
2.26813174e+01
2.25740378e+01
2.26812463e+01
2.36909690e+01
2.47783948e+01
2.48313107e+01
2.48843416e+01
2.37969960e+01
2.27831288e+01
2.27321276e+01
9.80502771e+00
1.03764197e+01
1.09991887e+01
1.11644266e+01
1.13396053e+01
1.13523519e+01
1.13711975e+01
1.08684384e+01
1.04062789e+01
1.00927734e+01
1.02452106e+01
1.03222025e+01
1.04060329e+01
1.08690628e+01
1.13709936e+01
1.17250582e+01
1.21002935e+01
1.24298839e+01
1.27878107e+01
1.27946238e+01
1.28038241e+01
1.24041623e+01
1.20272098e+01
1.10744131e+01
1.20272731e+01
1.24044373e+01
1.28036730e+01
1.32668196e+01
1.37576350e+01
1.40976671e+01
1.44632874e+01
1.44652575e+01
1.44673817e+01
1.39209638e+01
1.34105157e+01
1.28295855e+01
1.22849420e+01
1.21359935e+01
1.34105552e+01
1.39212125e+01
1.44674077e+01
1.53292724e+01
1.62696880e+01
1.62874370e+01
1.63142397e+01
1.56376510e+01
1.50113093e+01
1.41627366e+01
1.49109498e+01
1.49589927e+01
1.50114175e+01
1.56374522e+01
1.63142714e+01
1.72635468e+01
1.82934786e+01
1.83296276e+01
1.83745554e+01
1.78779383e+01
1.74057297e+01
1.60918387e+01
1.74057361e+01
1.78780104e+01
1.83745157e+01
1.94133552e+01
2.05306764e+01
2.05440535e+01
2.05579159e+01
1.94457444e+01
1.84404675e+01
1.80991293e+01
1.77659778e+01
1.75689046e+01
1.84404845e+01
1.94456179e+01
2.05579255e+01
2.10720141e+01
2.16116317e+01
2.08448745e+01
2.01270724e+01
1.92600311e+01
2.01270696e+01
2.08447947e+01
2.16117353e+01
2.22988278e+01
2.30138592e+01
2.30677883e+01
2.31235968e+01
2.20640261e+01
2.10945753e+01
2.05986729e+01
2.11829244e+01
2.11359354e+01
2.10945130e+01
2.20641527e+01
2.31236117e+01
2.37550537e+01
2.44147889e+01
2.34523069e+01
2.25614780e+01
2.18587084e+01
2.25614309e+01
2.34524965e+01
2.44146571e+01
2.50459233e+01
2.56964961e+01
2.58196814e+01
2.59470418e+01
2.50723342e+01
2.42518713e+01
2.41207374e+01
2.39914632e+01
2.32626338e+01
2.44105988e+01
2.43305224e+01
2.42519404e+01
2.50721981e+01
2.59471275e+01
2.63232923e+01
2.67067221e+01
2.57716126e+01
2.48844687e+01
2.48308427e+01
2.47794159e+01
2.46828536e+01
2.45853681e+01
2.44976161e+01
1.09987589e+01
1.16344456e+01
1.23180981e+01
1.23430119e+01
1.23701250e+01
1.24149343e+01
1.24588205e+01
1.24967322e+01
1.25353785e+01
1.25652579e+01
1.25966317e+01
1.19403408e+01
1.13387217e+01
1.11651077e+01
1.13386360e+01
1.19404769e+01
1.25965625e+01
1.26696321e+01
1.27445615e+01
1.31467055e+01
1.35764759e+01
1.28024974e+01
1.20996139e+01
1.17255704e+01
1.13708336e+01
1.13526472e+01
1.20997457e+01
1.28023078e+01
1.35765230e+01
1.40675586e+01
1.45855798e+01
1.45385908e+01
1.44971684e+01
1.35975605e+01
1.27877719e+01
1.24296122e+01
1.28036831e+01
1.27947804e+01
1.27877569e+01
1.35974339e+01
1.44972307e+01
1.47710186e+01
1.50691055e+01
1.43888218e+01
1.37577537e+01
1.32667489e+01
1.37576500e+01
1.43889016e+01
1.50691083e+01
1.57414474e+01
1.64612811e+01
1.54086714e+01
1.44632357e+01
1.40976784e+01
1.44674025e+01
1.44650717e+01
1.44632262e+01
1.54087978e+01
1.64612641e+01
1.67796604e+01
1.71062434e+01
1.71604975e+01
1.72486565e+01
1.67470370e+01
1.62696486e+01
1.53292848e+01
1.63142752e+01
1.62875924e+01
1.62696883e+01
1.67469649e+01
1.72486500e+01
1.85265730e+01
1.99374981e+01
1.98598772e+01
1.97866384e+01
1.90146643e+01
1.82934748e+01
1.72635468e+01
1.83745550e+01
1.83294722e+01
1.82934431e+01
1.90148631e+01
1.97865302e+01
2.07757892e+01
2.18614395e+01
2.11782916e+01
2.05306815e+01
1.94133429e+01
2.05579771e+01
2.05442393e+01
2.05306555e+01
2.11780428e+01
2.18613999e+01
2.26627705e+01
2.35004278e+01
2.37755943e+01
2.40909889e+01
2.35413833e+01
2.30138491e+01
2.22988984e+01
2.16116166e+01
2.10720028e+01
2.31236505e+01
2.30676318e+01
2.30140002e+01
2.35411082e+01
2.40909256e+01
2.56514030e+01
2.73354747e+01
2.72710949e+01
2.72135536e+01
2.64356544e+01
2.56966561e+01
2.50454111e+01
2.44153368e+01
2.37553254e+01
2.59480112e+01
2.58193860e+01
2.56968600e+01
2.64350300e+01
2.72137996e+01
2.79213117e+01
2.86545836e+01
2.76551793e+01
2.67071520e+01
2.63226111e+01
1.23179710e+01
1.31941208e+01
1.41437490e+01
1.41712876e+01
1.41989461e+01
1.32451735e+01
1.23691039e+01
1.23434799e+01
1.23691723e+01
1.32450533e+01
1.41990172e+01
1.42592945e+01
1.43201652e+01
1.33452444e+01
1.24580554e+01
1.24133180e+01
1.24581276e+01
1.33451070e+01
1.43202364e+01
1.43859805e+01
1.44524942e+01
1.34444373e+01
1.25336683e+01
1.24956177e+01
1.25336789e+01
1.34444196e+01
1.44525091e+01
1.45240921e+01
1.45964742e+01
1.35422697e+01
1.25961198e+01
1.25646290e+01
1.25961150e+01
1.35422824e+01
1.45964744e+01
1.46740330e+01
1.47524451e+01
1.36934582e+01
1.27435710e+01
1.26694193e+01
1.27437954e+01
1.36929977e+01
1.47526122e+01
1.51704204e+01
1.56108489e+01
1.55341019e+01
1.54732906e+01
1.50193609e+01
1.45856779e+01
1.40671841e+01
1.35761907e+01
1.31459081e+01
1.50691035e+01
1.47709706e+01
1.44974313e+01
1.45382371e+01
1.45857025e+01
1.50190780e+01
1.54734390e+01
1.67228578e+01
1.81508361e+01
1.81071346e+01
1.80772482e+01
1.75812941e+01
1.71061264e+01
1.67796897e+01
1.64612869e+01
1.57413823e+01
1.72485761e+01
1.71605322e+01
1.71062741e+01
1.75808259e+01
1.80773862e+01
1.95226394e+01
2.11465034e+01
2.11349713e+01
2.11361805e+01
2.05235102e+01
1.99373361e+01
1.85268855e+01
1.97865395e+01
1.98598336e+01
1.99375884e+01
2.05229650e+01
2.11367373e+01
2.27752414e+01
2.45936448e+01
2.46136963e+01
2.46470484e+01
2.40629305e+01
2.35003584e+01
2.26628148e+01
2.18613547e+01
2.07759220e+01
2.40912638e+01
2.37748868e+01
2.35006925e+01
2.40621896e+01
2.46475089e+01
2.64814033e+01
2.84952911e+01
2.85476230e+01
2.86136387e+01
2.79620196e+01
2.73356643e+01
2.56515188e+01
2.72142798e+01
2.72705472e+01
2.73357432e+01
2.79621693e+01
2.86135005e+01
2.93378608e+01
3.00865917e+01
3.02291547e+01
3.03706024e+01
3.05072016e+01
3.06442798e+01
3.07743722e+01
3.09036267e+01
3.10278248e+01
3.11510163e+01
3.12065900e+01
3.12661003e+01
2.99214797e+01
2.86543495e+01
2.79214622e+01
1.45960330e+01
1.45248161e+01
1.44531621e+01
1.43873624e+01
1.43208109e+01
1.42610696e+01
1.42009340e+01
1.41705562e+01
1.41445575e+01
1.51169481e+01
1.61679735e+01
1.67208253e+01
1.73318139e+01
1.64381227e+01
1.56107215e+01
1.51702360e+01
1.47535486e+01
1.46755537e+01
1.54736350e+01
1.55343588e+01
1.56104681e+01
1.64376225e+01
1.73311530e+01
1.85498897e+01
1.99941160e+01
1.90390689e+01
1.81509156e+01
1.67224323e+01
1.80772685e+01
1.81062995e+01
1.81509307e+01
1.90392497e+01
1.99941162e+01
2.14384380e+01
2.31096833e+01
2.20955899e+01
2.11465789e+01
1.95228623e+01
2.11365803e+01
2.11338378e+01
2.11468320e+01
2.20954473e+01
2.31097883e+01
2.47816737e+01
2.66794259e+01
2.56040207e+01
2.45935331e+01
2.27754889e+01
2.46474350e+01
2.46125939e+01
2.45939979e+01
2.56035622e+01
2.66795074e+01
2.85773164e+01
3.07015403e+01
2.95651241e+01
2.84951716e+01
2.64813167e+01
2.86137482e+01
2.85470634e+01
2.84954608e+01
2.95662394e+01
3.07017421e+01
3.18181309e+01
3.30004104e+01
3.14897492e+01
3.00857135e+01
2.93377601e+01
3.00853966e+01
3.14904170e+01
3.30001835e+01
3.31182169e+01
3.32368816e+01
3.17550413e+01
3.03706798e+01
3.02276023e+01
3.03706741e+01
3.17550610e+01
3.32368633e+01
3.33555611e+01
3.34748877e+01
3.20132498e+01
3.06434981e+01
3.05066844e+01
3.06434846e+01
3.20132688e+01
3.34748763e+01
3.35940571e+01
3.37137702e+01
3.22657021e+01
3.09032911e+01
3.07729730e+01
3.09032135e+01
3.22658652e+01
3.37136871e+01
3.38330257e+01
3.39529316e+01
3.25132090e+01
3.11494366e+01
3.10260170e+01
3.11493530e+01
3.25133661e+01
3.39528469e+01
3.40127973e+01
3.40729397e+01
3.26335777e+01
3.12655218e+01
3.12074175e+01
1.61679734e+01
1.70203506e+01
1.79262732e+01
1.85088065e+01
1.91504414e+01
1.82087245e+01
1.73314541e+01
1.67214461e+01
1.73307402e+01
1.82075452e+01
1.91494602e+01
2.04337376e+01
2.19331181e+01
2.09316991e+01
1.99939140e+01
1.85504742e+01
1.99938734e+01
2.09315164e+01
2.19332363e+01
2.34426778e+01
2.51691189e+01
2.41083334e+01
2.31097064e+01
2.14386522e+01
2.31097861e+01
2.41084234e+01
2.51692123e+01
2.69050026e+01
2.88573484e+01
2.77359959e+01
2.66791150e+01
2.47820991e+01
2.66791129e+01
2.77364580e+01
2.88572843e+01
3.08198349e+01
3.29974677e+01
3.18170811e+01
3.07013093e+01
2.85778940e+01
3.07016275e+01
3.18184323e+01
3.29982488e+01
3.41463334e+01
3.53580412e+01
3.41482174e+01
3.30002916e+01
3.18189831e+01
3.30001036e+01
3.41486928e+01
3.53581677e+01
3.54793057e+01
3.56009057e+01
3.43892310e+01
3.32368558e+01
3.31181193e+01
3.32368360e+01
3.43892757e+01
3.56008839e+01
3.57224881e+01
3.58447740e+01
3.46308106e+01
3.34749249e+01
3.33556212e+01
3.34749363e+01
3.46307838e+01
3.58447863e+01
3.59670790e+01
3.60903043e+01
3.48736646e+01
3.37138281e+01
3.35941784e+01
3.37137791e+01
3.48737414e+01
3.60902739e+01
3.62131450e+01
3.63367194e+01
3.51195072e+01
3.39528986e+01
3.38330161e+01
3.39527873e+01
3.51197292e+01
3.63365969e+01
3.63982819e+01
3.64600220e+01
3.52433323e+01
3.40728367e+01
3.40126880e+01
1.79263112e+01
1.83803209e+01
1.88508439e+01
1.94534485e+01
2.01026435e+01
1.96191214e+01
1.91504848e+01
1.85095148e+01
1.91494043e+01
1.96175042e+01
2.01023937e+01
2.14365269e+01
2.29437778e+01
2.24310671e+01
2.19329748e+01
2.04343145e+01
2.19331982e+01
2.24307471e+01
2.29439418e+01
2.45034274e+01
2.62388210e+01
2.56956368e+01
2.51688605e+01
2.34425368e+01
2.51689311e+01
2.56957421e+01
2.62388758e+01
2.80255913e+01
2.99872266e+01
2.94144521e+01
2.88573156e+01
2.69049182e+01
2.88572306e+01
2.94146893e+01
2.99872241e+01
3.20016631e+01
3.41893882e+01
3.35853054e+01
3.29974537e+01
3.08201144e+01
3.29984856e+01
3.35868786e+01
3.41893896e+01
3.53607233e+01
3.65828194e+01
3.59615368e+01
3.53583772e+01
3.41462978e+01
3.53585239e+01
3.59625952e+01
3.65825864e+01
3.67050467e+01
3.68284811e+01
3.62065888e+01
3.56011446e+01
3.54795905e+01
3.56011298e+01
3.62066214e+01
3.68284717e+01
3.69518653e+01
3.70759388e+01
3.64524957e+01
3.58449308e+01
3.57226260e+01
3.58449132e+01
3.64525573e+01
3.70758979e+01
3.71999230e+01
3.73243976e+01
3.66997123e+01
3.60903325e+01
3.59672788e+01
3.60903266e+01
3.66996795e+01
3.73244090e+01
3.74488724e+01
3.75743669e+01
3.69480500e+01
3.63365757e+01
3.62132965e+01
3.63364577e+01
3.69482447e+01
3.75743128e+01
3.76369527e+01
3.76996421e+01
3.70736689e+01
3.64597198e+01
3.63979235e+01
 
