# vtk DataFile Version 3.0 
Date: 3/21/2016   Time: 14:2
ASCII 
DATASET UNSTRUCTURED_GRID 
 
POINTS 1072 float 
0.000000 0.000000 0.000000 
0.025000 0.000000 0.000000 
0.050000 0.000000 0.000000 
0.050000 0.002500 0.000000 
0.050000 0.005000 0.000000 
0.025000 0.005000 0.000000 
0.000000 0.005000 0.000000 
0.000000 0.002500 0.000000 
0.000000 0.005000 0.000000 
0.025000 0.005000 0.000000 
0.050000 0.005000 0.000000 
0.050000 0.010000 0.000000 
0.050000 0.015000 0.000000 
0.025000 0.015000 0.000000 
0.000000 0.015000 0.000000 
0.000000 0.010000 0.000000 
0.000000 0.015000 0.000000 
0.025000 0.015000 0.000000 
0.050000 0.015000 0.000000 
0.050000 0.020000 0.000000 
0.050000 0.025000 0.000000 
0.025000 0.025000 0.000000 
0.000000 0.025000 0.000000 
0.000000 0.020000 0.000000 
0.000000 0.025000 0.000000 
0.025000 0.025000 0.000000 
0.050000 0.025000 0.000000 
0.050000 0.030000 0.000000 
0.050000 0.035000 0.000000 
0.025000 0.035000 0.000000 
0.000000 0.035000 0.000000 
0.000000 0.030000 0.000000 
0.000000 0.035000 0.000000 
0.025000 0.035000 0.000000 
0.050000 0.035000 0.000000 
0.050000 0.040000 0.000000 
0.050000 0.045000 0.000000 
0.025000 0.045000 0.000000 
0.000000 0.045000 0.000000 
0.000000 0.040000 0.000000 
0.000000 0.045000 0.000000 
0.025000 0.045000 0.000000 
0.050000 0.045000 0.000000 
0.050000 0.095000 0.000000 
0.050000 0.145000 0.000000 
0.025000 0.145000 0.000000 
0.000000 0.145000 0.000000 
0.000000 0.095000 0.000000 
0.000000 0.145000 0.000000 
0.025000 0.145000 0.000000 
0.050000 0.145000 0.000000 
0.050000 0.240000 0.000000 
0.050000 0.335000 0.000000 
0.025000 0.335000 0.000000 
0.000000 0.335000 0.000000 
0.000000 0.240000 0.000000 
0.000000 0.335000 0.000000 
0.025000 0.335000 0.000000 
0.050000 0.335000 0.000000 
0.050000 0.430000 0.000000 
0.050000 0.525000 0.000000 
0.025000 0.525000 0.000000 
0.000000 0.525000 0.000000 
0.000000 0.430000 0.000000 
0.000000 0.525000 0.000000 
0.025000 0.525000 0.000000 
0.050000 0.525000 0.000000 
0.050000 0.620000 0.000000 
0.050000 0.715000 0.000000 
0.025000 0.715000 0.000000 
0.000000 0.715000 0.000000 
0.000000 0.620000 0.000000 
0.000000 0.715000 0.000000 
0.025000 0.715000 0.000000 
0.050000 0.715000 0.000000 
0.050000 0.810000 0.000000 
0.050000 0.905000 0.000000 
0.025000 0.905000 0.000000 
0.000000 0.905000 0.000000 
0.000000 0.810000 0.000000 
0.000000 0.905000 0.000000 
0.025000 0.905000 0.000000 
0.050000 0.905000 0.000000 
0.050000 0.952500 0.000000 
0.050000 1.000000 0.000000 
0.025000 1.000000 0.000000 
0.000000 1.000000 0.000000 
0.000000 0.952500 0.000000 
0.050000 0.000000 0.000000 
0.100000 0.000000 0.000000 
0.150000 0.000000 0.000000 
0.150000 0.002500 0.000000 
0.150000 0.005000 0.000000 
0.100000 0.005000 0.000000 
0.050000 0.005000 0.000000 
0.050000 0.002500 0.000000 
0.050000 0.005000 0.000000 
0.100000 0.005000 0.000000 
0.150000 0.005000 0.000000 
0.150000 0.010000 0.000000 
0.150000 0.015000 0.000000 
0.100000 0.015000 0.000000 
0.050000 0.015000 0.000000 
0.050000 0.010000 0.000000 
0.050000 0.015000 0.000000 
0.100000 0.015000 0.000000 
0.150000 0.015000 0.000000 
0.150000 0.020000 0.000000 
0.150000 0.025000 0.000000 
0.100000 0.025000 0.000000 
0.050000 0.025000 0.000000 
0.050000 0.020000 0.000000 
0.050000 0.025000 0.000000 
0.100000 0.025000 0.000000 
0.150000 0.025000 0.000000 
0.150000 0.030000 0.000000 
0.150000 0.035000 0.000000 
0.100000 0.035000 0.000000 
0.050000 0.035000 0.000000 
0.050000 0.030000 0.000000 
0.050000 0.035000 0.000000 
0.100000 0.035000 0.000000 
0.150000 0.035000 0.000000 
0.150000 0.040000 0.000000 
0.150000 0.045000 0.000000 
0.100000 0.045000 0.000000 
0.050000 0.045000 0.000000 
0.050000 0.040000 0.000000 
0.050000 0.045000 0.000000 
0.100000 0.045000 0.000000 
0.150000 0.045000 0.000000 
0.150000 0.095000 0.000000 
0.150000 0.145000 0.000000 
0.100000 0.145000 0.000000 
0.050000 0.145000 0.000000 
0.050000 0.095000 0.000000 
0.050000 0.145000 0.000000 
0.100000 0.145000 0.000000 
0.150000 0.145000 0.000000 
0.150000 0.240000 0.000000 
0.150000 0.335000 0.000000 
0.100000 0.335000 0.000000 
0.050000 0.335000 0.000000 
0.050000 0.240000 0.000000 
0.050000 0.335000 0.000000 
0.100000 0.335000 0.000000 
0.150000 0.335000 0.000000 
0.150000 0.430000 0.000000 
0.150000 0.525000 0.000000 
0.100000 0.525000 0.000000 
0.050000 0.525000 0.000000 
0.050000 0.430000 0.000000 
0.050000 0.525000 0.000000 
0.100000 0.525000 0.000000 
0.150000 0.525000 0.000000 
0.150000 0.620000 0.000000 
0.150000 0.715000 0.000000 
0.100000 0.715000 0.000000 
0.050000 0.715000 0.000000 
0.050000 0.620000 0.000000 
0.050000 0.715000 0.000000 
0.100000 0.715000 0.000000 
0.150000 0.715000 0.000000 
0.150000 0.810000 0.000000 
0.150000 0.905000 0.000000 
0.100000 0.905000 0.000000 
0.050000 0.905000 0.000000 
0.050000 0.810000 0.000000 
0.050000 0.905000 0.000000 
0.100000 0.905000 0.000000 
0.150000 0.905000 0.000000 
0.150000 0.952500 0.000000 
0.150000 1.000000 0.000000 
0.100000 1.000000 0.000000 
0.050000 1.000000 0.000000 
0.050000 0.952500 0.000000 
0.150000 0.000000 0.000000 
0.212500 0.000000 0.000000 
0.275000 0.000000 0.000000 
0.275000 0.002500 0.000000 
0.275000 0.005000 0.000000 
0.212500 0.005000 0.000000 
0.150000 0.005000 0.000000 
0.150000 0.002500 0.000000 
0.150000 0.005000 0.000000 
0.212500 0.005000 0.000000 
0.275000 0.005000 0.000000 
0.275334 0.010000 0.000000 
0.275667 0.015000 0.000000 
0.212834 0.015000 0.000000 
0.150000 0.015000 0.000000 
0.150000 0.010000 0.000000 
0.150000 0.015000 0.000000 
0.212834 0.015000 0.000000 
0.275667 0.015000 0.000000 
0.276334 0.020000 0.000000 
0.277000 0.025000 0.000000 
0.213500 0.025000 0.000000 
0.150000 0.025000 0.000000 
0.150000 0.020000 0.000000 
0.150000 0.025000 0.000000 
0.213500 0.025000 0.000000 
0.277000 0.025000 0.000000 
0.278000 0.030000 0.000000 
0.279000 0.035000 0.000000 
0.214500 0.035000 0.000000 
0.150000 0.035000 0.000000 
0.150000 0.030000 0.000000 
0.150000 0.035000 0.000000 
0.214500 0.035000 0.000000 
0.279000 0.035000 0.000000 
0.280334 0.040000 0.000000 
0.281667 0.045000 0.000000 
0.215834 0.045000 0.000000 
0.150000 0.045000 0.000000 
0.150000 0.040000 0.000000 
0.150000 0.045000 0.000000 
0.215834 0.045000 0.000000 
0.281667 0.045000 0.000000 
0.290000 0.070000 0.000000 
0.298333 0.095000 0.000000 
0.275000 0.120000 0.000000 
0.251667 0.145000 0.000000 
0.200834 0.145000 0.000000 
0.150000 0.145000 0.000000 
0.150000 0.095000 0.000000 
0.150000 0.145000 0.000000 
0.200834 0.145000 0.000000 
0.251667 0.145000 0.000000 
0.275000 0.215000 0.000000 
0.298333 0.285000 0.000000 
0.275000 0.310000 0.000000 
0.251667 0.335000 0.000000 
0.200834 0.335000 0.000000 
0.150000 0.335000 0.000000 
0.150000 0.240000 0.000000 
0.150000 0.335000 0.000000 
0.200834 0.335000 0.000000 
0.251667 0.335000 0.000000 
0.275000 0.405000 0.000000 
0.298333 0.475000 0.000000 
0.275000 0.500000 0.000000 
0.251667 0.525000 0.000000 
0.200834 0.525000 0.000000 
0.150000 0.525000 0.000000 
0.150000 0.430000 0.000000 
0.150000 0.525000 0.000000 
0.200834 0.525000 0.000000 
0.251667 0.525000 0.000000 
0.275000 0.595000 0.000000 
0.298333 0.665000 0.000000 
0.275000 0.690000 0.000000 
0.251667 0.715000 0.000000 
0.200834 0.715000 0.000000 
0.150000 0.715000 0.000000 
0.150000 0.620000 0.000000 
0.150000 0.715000 0.000000 
0.200834 0.715000 0.000000 
0.251667 0.715000 0.000000 
0.275000 0.785000 0.000000 
0.298333 0.855000 0.000000 
0.275000 0.880000 0.000000 
0.251667 0.905000 0.000000 
0.200834 0.905000 0.000000 
0.150000 0.905000 0.000000 
0.150000 0.810000 0.000000 
0.150000 0.905000 0.000000 
0.200834 0.905000 0.000000 
0.251667 0.905000 0.000000 
0.260000 0.930000 0.000000 
0.268333 0.955000 0.000000 
0.269667 0.960000 0.000000 
0.271000 0.965000 0.000000 
0.272000 0.970000 0.000000 
0.273000 0.975000 0.000000 
0.273667 0.980000 0.000000 
0.274333 0.985000 0.000000 
0.274667 0.990000 0.000000 
0.275000 0.995000 0.000000 
0.275000 0.997500 0.000000 
0.275000 1.000000 0.000000 
0.212500 1.000000 0.000000 
0.150000 1.000000 0.000000 
0.150000 0.952500 0.000000 
0.279000 0.035000 0.000000 
0.278000 0.030000 0.000000 
0.277000 0.025000 0.000000 
0.276334 0.020000 0.000000 
0.275667 0.015000 0.000000 
0.275334 0.010000 0.000000 
0.275000 0.005000 0.000000 
0.275000 0.002500 0.000000 
0.275000 0.000000 0.000000 
0.337500 0.000000 0.000000 
0.400000 0.000000 0.000000 
0.400000 0.032500 0.000000 
0.400000 0.065000 0.000000 
0.380500 0.080000 0.000000 
0.361000 0.095000 0.000000 
0.329666 0.095000 0.000000 
0.298333 0.095000 0.000000 
0.290000 0.070000 0.000000 
0.281667 0.045000 0.000000 
0.280334 0.040000 0.000000 
0.251667 0.145000 0.000000 
0.275000 0.120000 0.000000 
0.298333 0.095000 0.000000 
0.329666 0.095000 0.000000 
0.361000 0.095000 0.000000 
0.391000 0.145000 0.000000 
0.421000 0.195000 0.000000 
0.389500 0.240000 0.000000 
0.358000 0.285000 0.000000 
0.328167 0.285000 0.000000 
0.298333 0.285000 0.000000 
0.275000 0.215000 0.000000 
0.251667 0.335000 0.000000 
0.275000 0.310000 0.000000 
0.298333 0.285000 0.000000 
0.328167 0.285000 0.000000 
0.358000 0.285000 0.000000 
0.382000 0.305000 0.000000 
0.406000 0.325000 0.000000 
0.399500 0.390000 0.000000 
0.393000 0.455000 0.000000 
0.379000 0.465000 0.000000 
0.365000 0.475000 0.000000 
0.331666 0.475000 0.000000 
0.298333 0.475000 0.000000 
0.275000 0.405000 0.000000 
0.251667 0.525000 0.000000 
0.275000 0.500000 0.000000 
0.298333 0.475000 0.000000 
0.331666 0.475000 0.000000 
0.365000 0.475000 0.000000 
0.392500 0.530000 0.000000 
0.420000 0.585000 0.000000 
0.388000 0.625000 0.000000 
0.356000 0.665000 0.000000 
0.327167 0.665000 0.000000 
0.298333 0.665000 0.000000 
0.275000 0.595000 0.000000 
0.251667 0.715000 0.000000 
0.275000 0.690000 0.000000 
0.298333 0.665000 0.000000 
0.327167 0.665000 0.000000 
0.356000 0.665000 0.000000 
0.367000 0.675000 0.000000 
0.378000 0.685000 0.000000 
0.392000 0.720000 0.000000 
0.406000 0.755000 0.000000 
0.395500 0.790000 0.000000 
0.385000 0.825000 0.000000 
[...]
CELL_DATA 110
FIELD FieldData 1
material 1 110 int
1
1
1
1
1
1
1
1
1
1
1
1
1
1
1
1
1
1
1
1
1
1
1
1
1
1
1
1
1
1
1
1
1
1
1
1
1
1
1
1
1
1
1
1
1
1
1
1
1
1
1
1
1
1
1
1
1
1
1
1
1
1
1
1
1
1
1
1
1
1
1
1
1
1
1
1
1
1
1
1
1
1
1
1
1
1
1
1
1
1
1
1
1
1
1
1
1
1
1
1
1
1
1
1
1
1
1
1
1
1
POINT_DATA 1072 SCALARS flux_g1 double 
LOOKUP_TABLE   default 
6.28371869e+00
6.44313926e+00
6.61456809e+00
6.63131643e+00
6.64840668e+00
6.47478119e+00
6.31547818e+00
6.29958128e+00
6.31552584e+00
6.47458681e+00
6.64853450e+00
6.68232850e+00
6.71639389e+00
6.54040344e+00
6.37973485e+00
6.34711763e+00
6.37973953e+00
6.54041102e+00
6.71639482e+00
6.75046750e+00
6.78525174e+00
6.60737156e+00
6.44537405e+00
6.41231909e+00
6.44540501e+00
6.60731215e+00
6.78527599e+00
6.82007332e+00
6.85558442e+00
6.67571846e+00
6.51211756e+00
6.47841413e+00
6.51212265e+00
6.67570312e+00
6.85560751e+00
6.89103951e+00
6.92701681e+00
6.74582748e+00
6.58036593e+00
6.54579823e+00
6.58053925e+00
6.74474440e+00
6.92702780e+00
7.28601425e+00
7.70854578e+00
7.51169183e+00
7.32867845e+00
6.92947846e+00
7.32855867e+00
7.51006243e+00
7.70754902e+00
8.51490045e+00
9.53658083e+00
9.30874721e+00
9.09567381e+00
8.12556665e+00
9.09561696e+00
9.30844360e+00
9.53661701e+00
1.05685199e+01
1.18172072e+01
1.15587081e+01
1.13162141e+01
1.01183403e+01
1.13161480e+01
1.15585924e+01
1.18171387e+01
1.30752143e+01
1.45506202e+01
1.42628590e+01
1.39904403e+01
1.25653070e+01
1.39902579e+01
1.42631575e+01
1.45503844e+01
1.60360757e+01
1.77357269e+01
1.74185270e+01
1.71178227e+01
1.54673634e+01
1.71180940e+01
1.74201082e+01
1.77368184e+01
1.85880816e+01
1.94970953e+01
1.91657492e+01
1.88508132e+01
1.79610952e+01
6.61487189e+00
6.96903245e+00
7.36929340e+00
7.38768814e+00
7.40638212e+00
7.00241615e+00
6.64856223e+00
6.63170439e+00
6.64870950e+00
7.00210269e+00
7.40655787e+00
7.44375263e+00
7.48140266e+00
7.07073851e+00
6.71637919e+00
6.68214241e+00
6.71637802e+00
7.07072732e+00
7.48142615e+00
7.51872306e+00
7.55655531e+00
7.14186030e+00
6.78511696e+00
6.75034793e+00
6.78513742e+00
7.14182888e+00
7.55656517e+00
7.59452104e+00
7.63315347e+00
7.21414359e+00
6.85534694e+00
6.81990757e+00
6.85538802e+00
7.21405931e+00
7.63316891e+00
7.67176377e+00
7.71098817e+00
7.28798141e+00
6.92668205e+00
6.89071949e+00
6.92671008e+00
7.28801565e+00
7.71086513e+00
8.09957056e+00
8.55360815e+00
8.09928366e+00
7.70828942e+00
7.28602393e+00
7.70748892e+00
8.09817774e+00
8.55321228e+00
9.41427585e+00
1.04997634e+01
9.98646473e+00
9.53654001e+00
8.51467368e+00
9.53656302e+00
9.98599592e+00
1.04998129e+01
1.15875988e+01
1.28996791e+01
1.23274833e+01
1.18173956e+01
1.05686691e+01
1.18173067e+01
1.23274179e+01
1.28996005e+01
1.42129894e+01
1.57526822e+01
1.51196358e+01
1.45505764e+01
1.30754163e+01
1.45504256e+01
1.51199149e+01
1.57526429e+01
1.72940506e+01
1.90588031e+01
1.83646895e+01
1.77356980e+01
1.60355707e+01
1.77367396e+01
1.83657743e+01
1.90594710e+01
1.99414941e+01
2.08803672e+01
2.01619501e+01
1.94970253e+01
1.85874589e+01
7.36931835e+00
7.89377023e+00
8.48886771e+00
8.50928789e+00
8.53021528e+00
7.93016294e+00
7.40647801e+00
7.38793175e+00
7.40666831e+00
7.92970993e+00
8.53051127e+00
8.57508808e+00
8.62009600e+00
8.00749490e+00
7.48124378e+00
7.44353571e+00
7.48129482e+00
8.00730168e+00
8.62027404e+00
8.66764893e+00
8.71525598e+00
8.09141564e+00
7.55657704e+00
7.51854471e+00
7.55667848e+00
8.09125685e+00
8.71525433e+00
8.76688648e+00
8.81885996e+00
8.17840681e+00
7.63327140e+00
7.59465983e+00
7.63322314e+00
8.17860239e+00
8.81869310e+00
8.87443324e+00
8.93176924e+00
8.26859218e+00
7.71100248e+00
7.67204619e+00
7.71092375e+00
8.26774765e+00
8.93222296e+00
9.23195477e+00
9.55457178e+00
9.54050339e+00
9.54094269e+00
9.01515756e+00
8.55358648e+00
8.09891817e+00
8.55339665e+00
9.01387942e+00
9.54089951e+00
1.04594202e+01
1.15573124e+01
1.15750166e+01
1.16089016e+01
1.10213014e+01
1.05001581e+01
9.41363452e+00
1.05001444e+01
1.10217004e+01
1.16083852e+01
1.27224104e+01
1.40155014e+01
1.40652221e+01
1.41308054e+01
1.34825502e+01
1.28996646e+01
1.15870954e+01
1.28995875e+01
1.34824793e+01
1.41305355e+01
1.54388891e+01
1.69253249e+01
1.70066277e+01
1.71038467e+01
1.63951310e+01
1.57529765e+01
1.42127285e+01
1.57529739e+01
1.63948312e+01
1.71037904e+01
1.86074477e+01
2.02908114e+01
2.04038180e+01
2.05322272e+01
1.97626759e+01
1.90592559e+01
1.72931819e+01
1.90597447e+01
1.97635822e+01
2.05321855e+01
2.11391480e+01
2.17695614e+01
2.18905682e+01
2.20107817e+01
2.21274397e+01
2.22430160e+01
2.23568116e+01
2.24672784e+01
2.25758409e+01
2.26840516e+01
2.27320666e+01
2.27832985e+01
2.17922610e+01
2.08804142e+01
1.99407067e+01
8.82149379e+00
8.76429604e+00
8.71638695e+00
8.66859172e+00
8.61950276e+00
8.58062809e+00
8.52898026e+00
8.51446863e+00
8.48975188e+00
9.10457758e+00
9.80562272e+00
1.00913304e+01
1.04073264e+01
1.03220302e+01
1.02454076e+01
9.88674674e+00
9.55414701e+00
9.22815295e+00
8.93507076e+00
8.87366606e+00
9.54080629e+00
9.54164130e+00
9.55415596e+00
9.88616328e+00
1.02453854e+01
1.10747417e+01
1.20272640e+01
1.21350752e+01
1.22854795e+01
1.19094078e+01
1.15572659e+01
1.04595859e+01
1.16084291e+01
1.15762673e+01
1.15568790e+01
1.19101062e+01
1.22851467e+01
1.28296309e+01
1.34106279e+01
1.41628076e+01
1.50113114e+01
1.49589904e+01
1.49110550e+01
1.44492380e+01
1.40156025e+01
1.27222204e+01
1.41304229e+01
1.40662171e+01
1.40150635e+01
1.44496765e+01
1.49108717e+01
1.60919781e+01
1.74055007e+01
1.75687226e+01
1.77662477e+01
1.73351707e+01
1.69253749e+01
1.54388229e+01
1.71036678e+01
1.70075843e+01
1.69252045e+01
1.73352447e+01
1.77661540e+01
1.80993361e+01
1.84408208e+01
1.92601363e+01
2.01270859e+01
2.05982813e+01
2.10946421e+01
2.11358074e+01
2.11829738e+01
2.07261234e+01
2.02905547e+01
1.86078477e+01
2.02902771e+01
2.07267689e+01
2.11828280e+01
2.18585087e+01
2.25611406e+01
2.32618262e+01
2.39911055e+01
2.28239704e+01
2.17688902e+01
2.11393013e+01
2.05325311e+01
2.04038045e+01
2.17686942e+01
2.28245228e+01
2.39910190e+01
2.41209090e+01
2.42514553e+01
2.30780524e+01
2.20100820e+01
2.18888904e+01
2.20101103e+01
2.30779556e+01
2.42514915e+01
2.43294849e+01
2.44084601e+01
2.32795048e+01
2.22427691e+01
2.21264447e+01
2.22426979e+01
2.32795691e+01
2.44084912e+01
2.44966561e+01
2.45848794e+01
2.34818222e+01
2.24673811e+01
2.23546295e+01
2.24670827e+01
2.34823547e+01
2.45846704e+01
2.46817551e+01
2.47789718e+01
2.36890028e+01
2.26822596e+01
2.25739218e+01
2.26821565e+01
2.36892422e+01
2.47787842e+01
2.48311651e+01
2.48840089e+01
2.37964758e+01
2.27835544e+01
2.27328793e+01
9.80527324e+00
1.03759088e+01
1.09985540e+01
1.11655584e+01
1.13401411e+01
1.13525003e+01
1.13704925e+01
1.08684764e+01
1.04061973e+01
1.00924924e+01
1.02452754e+01
1.03230106e+01
1.04061336e+01
1.08677422e+01
1.13706082e+01
1.17255324e+01
1.21004857e+01
1.24296750e+01
1.27883019e+01
1.27950926e+01
1.28045328e+01
1.24045616e+01
1.20265944e+01
1.10749499e+01
1.20268965e+01
1.24043791e+01
1.28044809e+01
1.32669525e+01
1.37576363e+01
1.40974235e+01
1.44630624e+01
1.44650613e+01
1.44672904e+01
1.39210068e+01
1.34106286e+01
1.28296976e+01
1.22850675e+01
1.21361827e+01
1.34106619e+01
1.39213284e+01
1.44672568e+01
1.53291711e+01
1.62695995e+01
1.62873394e+01
1.63141740e+01
1.56375197e+01
1.50112983e+01
1.41627541e+01
1.49109560e+01
1.49590258e+01
1.50113816e+01
1.56374436e+01
1.63141878e+01
1.72634239e+01
1.82934156e+01
1.83295487e+01
1.83744981e+01
1.78778816e+01
1.74055525e+01
1.60917854e+01
1.74055845e+01
1.78778779e+01
1.83744602e+01
1.94133543e+01
2.05305278e+01
2.05437739e+01
2.05576455e+01
1.94455313e+01
1.84407278e+01
1.80993042e+01
1.77661986e+01
1.75687433e+01
1.84407454e+01
1.94454625e+01
2.05576665e+01
2.10716294e+01
2.16117070e+01
2.08452642e+01
2.01270100e+01
1.92603722e+01
2.01271004e+01
2.08449637e+01
2.16118808e+01
2.22993190e+01
2.30143910e+01
2.30684394e+01
2.31240667e+01
2.20634342e+01
2.10944622e+01
2.05983430e+01
2.11830009e+01
2.11360055e+01
2.10943969e+01
2.20637700e+01
2.31239719e+01
2.37544512e+01
2.44152852e+01
2.34524270e+01
2.25611314e+01
2.18590380e+01
2.25606273e+01
2.34535135e+01
2.44150249e+01
2.50464271e+01
2.56961035e+01
2.58189493e+01
2.59474237e+01
2.50698361e+01
2.42520987e+01
2.41223950e+01
2.39912563e+01
2.32627265e+01
2.44106677e+01
2.43264493e+01
2.42508953e+01
2.50712681e+01
2.59474560e+01
2.63242245e+01
2.67061037e+01
2.57717166e+01
2.48846616e+01
2.48346967e+01
2.47790767e+01
2.46828046e+01
2.45861369e+01
2.44972960e+01
1.09981405e+01
1.16345497e+01
1.23182910e+01
1.23468659e+01
1.23697857e+01
1.24148853e+01
1.24595893e+01
1.24964120e+01
1.25354475e+01
1.25611848e+01
1.25955865e+01
1.19394108e+01
1.13390502e+01
1.11660399e+01
1.13390179e+01
1.19379788e+01
1.25967900e+01
1.26712897e+01
1.27443546e+01
1.31467981e+01
1.35756723e+01
1.28035144e+01
1.20999817e+01
1.17260742e+01
1.13704410e+01
1.13519152e+01
1.21002420e+01
1.28024279e+01
1.35761764e+01
1.40678882e+01
1.45856563e+01
1.45386609e+01
1.44970524e+01
1.35971778e+01
1.27881321e+01
1.24290097e+01
1.28042149e+01
1.27954315e+01
1.27882268e+01
1.35968420e+01
1.44971176e+01
1.47706886e+01
1.50691362e+01
1.43889908e+01
1.37578992e+01
1.32672402e+01
1.37577254e+01
1.43892913e+01
1.50690458e+01
1.57417885e+01
1.64615420e+01
1.54085160e+01
1.44629767e+01
1.40972937e+01
1.44672540e+01
1.44647921e+01
1.44629557e+01
1.54085848e+01
1.64615244e+01
1.67798352e+01
1.71064642e+01
1.71603362e+01
1.72485048e+01
1.67469045e+01
1.62695931e+01
1.53292838e+01
1.63142122e+01
1.62875135e+01
1.62696310e+01
1.67469082e+01
1.72484728e+01
1.85265197e+01
1.99375042e+01
1.98599103e+01
1.97866025e+01
1.90146557e+01
1.82933911e+01
1.72634239e+01
1.83744666e+01
1.83293747e+01
1.82933773e+01
1.90147318e+01
1.97865191e+01
2.07758067e+01
2.18615461e+01
2.11784074e+01
2.05305306e+01
1.94132416e+01
2.05577522e+01
2.05440431e+01
2.05305642e+01
2.11780859e+01
2.18615128e+01
2.26628826e+01
2.35005533e+01
2.37757835e+01
2.40906122e+01
2.35413250e+01
2.30146570e+01
2.22990313e+01
2.16116180e+01
2.10717592e+01
2.31241418e+01
2.30681006e+01
2.30147089e+01
2.35415076e+01
2.40903102e+01
2.56519398e+01
2.73355394e+01
2.72719030e+01
2.72136543e+01
2.64343338e+01
2.56962707e+01
2.50458852e+01
2.44155289e+01
2.37551165e+01
2.59485470e+01
2.58195345e+01
2.56961550e+01
2.64350680e+01
2.72137180e+01
2.79210308e+01
2.86548292e+01
2.76546684e+01
2.67065173e+01
2.63237429e+01
1.23176383e+01
1.31936006e+01
1.41441746e+01
1.41720394e+01
1.41998564e+01
1.32434467e+01
1.23694932e+01
1.23433343e+01
1.23696808e+01
1.32432072e+01
1.41999594e+01
1.42591784e+01
1.43198962e+01
1.33454877e+01
1.24581227e+01
1.24138358e+01
1.24583318e+01
1.33449551e+01
1.43201947e+01
1.43854614e+01
1.44515481e+01
1.34463841e+01
1.25332710e+01
1.24957722e+01
1.25332398e+01
1.34463198e+01
1.44516193e+01
1.45237905e+01
1.45959517e+01
1.35432219e+01
1.25961828e+01
1.25642205e+01
1.25961466e+01
1.35433187e+01
1.45959233e+01
1.46737045e+01
1.47524810e+01
1.36929653e+01
1.27441173e+01
1.26698038e+01
1.27442038e+01
1.36924130e+01
1.47526771e+01
1.51702753e+01
1.56106921e+01
1.55343359e+01
1.54731788e+01
1.50195475e+01
1.45854834e+01
1.40673590e+01
1.35761856e+01
1.31458978e+01
1.50691218e+01
1.47706269e+01
1.44972975e+01
1.45384628e+01
1.45856292e+01
1.50189020e+01
1.54734564e+01
1.67228921e+01
1.81508548e+01
1.81071418e+01
1.80771323e+01
1.75813413e+01
1.71064195e+01
1.67798671e+01
1.64616174e+01
1.57415525e+01
1.72484211e+01
1.71603155e+01
1.71065132e+01
1.75812674e+01
1.80773027e+01
1.95228934e+01
2.11466360e+01
2.11348006e+01
2.11360173e+01
2.05234275e+01
1.99374200e+01
1.85267124e+01
1.97865322e+01
1.98598749e+01
1.99376033e+01
2.05229890e+01
2.11365563e+01
2.27753169e+01
2.45936682e+01
2.46138768e+01
2.46468589e+01
2.40628390e+01
2.35006324e+01
2.26628159e+01
2.18615122e+01
2.07758602e+01
2.40909798e+01
2.37746760e+01
2.35009652e+01
2.40621406e+01
2.46472457e+01
2.64817084e+01
2.84950715e+01
2.85482769e+01
2.86131619e+01
2.79607982e+01
2.73356494e+01
2.56517316e+01
2.72148471e+01
2.72709225e+01
2.73356717e+01
2.79613817e+01
2.86131529e+01
2.93343459e+01
3.00884508e+01
3.02260189e+01
3.03728194e+01
3.05041172e+01
3.06447037e+01
3.07749268e+01
3.09038562e+01
3.10325383e+01
3.11484474e+01
3.12124756e+01
3.12662986e+01
2.99176289e+01
2.86551786e+01
2.79198687e+01
1.45966231e+01
1.45247855e+01
1.44518663e+01
1.43876435e+01
1.43200919e+01
1.42610975e+01
1.42017515e+01
1.41712266e+01
1.41439187e+01
1.51163766e+01
1.61680252e+01
1.67205742e+01
1.73318687e+01
1.64387247e+01
1.56103465e+01
1.51701219e+01
1.47533482e+01
1.46753823e+01
1.54737131e+01
1.55343494e+01
1.56103882e+01
1.64378184e+01
1.73313799e+01
1.85498190e+01
1.99941240e+01
1.90389998e+01
1.81509775e+01
1.67224921e+01
1.80772527e+01
1.81061851e+01
1.81510338e+01
1.90392995e+01
1.99941266e+01
2.14383916e+01
2.31097636e+01
2.20956739e+01
2.11467486e+01
1.95229595e+01
2.11364552e+01
2.11338055e+01
2.11470185e+01
2.20957449e+01
2.31098407e+01
2.47817845e+01
2.66793466e+01
2.56039211e+01
2.45936244e+01
2.27755069e+01
2.46472923e+01
2.46126261e+01
2.45941408e+01
2.56035221e+01
2.66793603e+01
2.85773497e+01
3.07016249e+01
2.95651261e+01
2.84951647e+01
2.64815428e+01
2.86135777e+01
2.85471389e+01
2.84952079e+01
2.95664043e+01
3.07018147e+01
3.18179427e+01
3.30007446e+01
3.14893481e+01
3.00856030e+01
2.93381478e+01
3.00851493e+01
3.14901926e+01
3.30008233e+01
3.31189467e+01
3.32372033e+01
3.17562553e+01
3.03700187e+01
3.02267861e+01
3.03701856e+01
3.17560597e+01
3.32372515e+01
3.33557196e+01
3.34748179e+01
3.20144849e+01
3.06435711e+01
3.05067076e+01
3.06435727e+01
3.20146437e+01
3.34747164e+01
3.35937637e+01
3.37135935e+01
3.22656277e+01
3.09046275e+01
3.07739840e+01
3.09044494e+01
3.22658209e+01
3.37135424e+01
3.38329140e+01
3.39531262e+01
3.25126724e+01
3.11499784e+01
3.10269983e+01
3.11496824e+01
3.25131255e+01
3.39529359e+01
3.40129295e+01
3.40728559e+01
3.26338124e+01
3.12654144e+01
3.12072948e+01
1.61679782e+01
1.70203574e+01
1.79262290e+01
1.85089191e+01
1.91504563e+01
1.82086947e+01
1.73315951e+01
1.67213616e+01
1.73309272e+01
1.82076099e+01
1.91494146e+01
2.04338004e+01
2.19331683e+01
2.09318613e+01
1.99937930e+01
1.85506876e+01
1.99938323e+01
2.09315822e+01
2.19333192e+01
2.34426721e+01
2.51690755e+01
2.41083904e+01
2.31097766e+01
2.14386525e+01
2.31098552e+01
2.41084557e+01
2.51691643e+01
2.69049509e+01
2.88573578e+01
2.77359944e+01
2.66790150e+01
2.47822880e+01
2.66789655e+01
2.77364632e+01
2.88573348e+01
3.08199815e+01
3.29973098e+01
3.18172023e+01
3.07014405e+01
2.85779910e+01
3.07018364e+01
3.18183082e+01
3.29981103e+01
3.41466411e+01
3.53581236e+01
3.41486328e+01
3.30006860e+01
3.18185951e+01
3.30008090e+01
3.41485986e+01
3.53580956e+01
3.54792126e+01
3.56009608e+01
3.43888358e+01
3.32371490e+01
3.31186643e+01
3.32371336e+01
3.43889200e+01
3.56009197e+01
3.57225600e+01
3.58448695e+01
3.46307646e+01
3.34747046e+01
3.33555808e+01
3.34746947e+01
3.46307960e+01
3.58448490e+01
3.59671596e+01
3.60902693e+01
3.48738223e+01
3.37137248e+01
3.35939421e+01
3.37137013e+01
3.48738335e+01
3.60902705e+01
3.62131134e+01
3.63367601e+01
3.51193569e+01
3.39530158e+01
3.38331309e+01
3.39528400e+01
3.51196704e+01
3.63366128e+01
3.63982948e+01
3.64600021e+01
3.52433663e+01
3.40728310e+01
3.40126859e+01
1.79262990e+01
1.83803510e+01
1.88508132e+01
1.94533517e+01
2.01026070e+01
1.96192231e+01
1.91505351e+01
1.85095418e+01
1.91494436e+01
1.96176418e+01
2.01023357e+01
2.14363894e+01
2.29437970e+01
2.24312984e+01
2.19331272e+01
2.04343054e+01
2.19333630e+01
2.24309999e+01
2.29439794e+01
2.45033591e+01
2.62387131e+01
2.56957593e+01
2.51689075e+01
2.34424700e+01
2.51689760e+01
2.56958750e+01
2.62387792e+01
2.80254184e+01
2.99872081e+01
2.94146366e+01
2.88574118e+01
2.69048017e+01
2.88573757e+01
2.94149402e+01
2.99872650e+01
3.20016708e+01
3.41891759e+01
3.35852815e+01
3.29973699e+01
3.08202083e+01
3.29983666e+01
3.35869109e+01
3.41892956e+01
3.53608920e+01
3.65827491e+01
3.59615561e+01
3.53584413e+01
3.41466314e+01
3.53584303e+01
3.59626392e+01
3.65825758e+01
3.67050877e+01
3.68284918e+01
3.62066741e+01
3.56011803e+01
3.54795327e+01
3.56011572e+01
3.62066894e+01
3.68284867e+01
3.69518629e+01
3.70759334e+01
3.64524424e+01
3.58450080e+01
3.57227257e+01
3.58449838e+01
3.64525018e+01
3.70759024e+01
3.71999271e+01
3.73244272e+01
3.66997005e+01
3.60902861e+01
3.59672792e+01
3.60902852e+01
3.66996929e+01
3.73244225e+01
3.74488849e+01
3.75743727e+01
3.69480355e+01
3.63365851e+01
3.62132994e+01
3.63364573e+01
3.69482299e+01
3.75743251e+01
3.76369680e+01
3.76996452e+01
3.70736676e+01
3.64596983e+01
3.63979068e+01
 
