# vtk DataFile Version 3.0 
Date: 3/21/2016   Time: 14:2
ASCII 
DATASET UNSTRUCTURED_GRID 
 
POINTS 880 float 
0.000000 0.000000 0.000000 
0.031250 0.000000 0.000000 
0.062500 0.000000 0.000000 
0.062500 0.031250 0.000000 
0.062500 0.062500 0.000000 
0.031250 0.062500 0.000000 
0.000000 0.062500 0.000000 
0.000000 0.031250 0.000000 
0.000000 0.062500 0.000000 
0.031250 0.062500 0.000000 
0.062500 0.062500 0.000000 
0.089773 0.089773 0.000000 
0.117045 0.117045 0.000000 
0.103835 0.152273 0.000000 
0.090625 0.187500 0.000000 
0.045312 0.187500 0.000000 
0.000000 0.187500 0.000000 
0.000000 0.125000 0.000000 
0.000000 0.187500 0.000000 
0.045312 0.187500 0.000000 
0.090625 0.187500 0.000000 
0.104366 0.242463 0.000000 
0.118107 0.297426 0.000000 
0.114647 0.304963 0.000000 
0.111187 0.312500 0.000000 
0.055593 0.312500 0.000000 
0.000000 0.312500 0.000000 
0.000000 0.250000 0.000000 
0.000000 0.312500 0.000000 
0.055593 0.312500 0.000000 
0.111187 0.312500 0.000000 
0.113546 0.341292 0.000000 
0.115906 0.370084 0.000000 
0.111703 0.381292 0.000000 
0.107500 0.392500 0.000000 
0.085000 0.415000 0.000000 
0.062500 0.437500 0.000000 
0.031250 0.437500 0.000000 
0.000000 0.437500 0.000000 
0.000000 0.375000 0.000000 
0.000000 0.437500 0.000000 
0.031250 0.437500 0.000000 
0.062500 0.437500 0.000000 
0.062500 0.462500 0.000000 
0.062500 0.487500 0.000000 
0.031250 0.518750 0.000000 
0.000000 0.550000 0.000000 
0.000000 0.493750 0.000000 
0.000000 0.570833 0.000000 
0.021930 0.585454 0.000000 
0.043860 0.600074 0.000000 
0.021930 0.622004 0.000000 
0.000000 0.643934 0.000000 
0.000000 0.607384 0.000000 
0.000000 0.695277 0.000000 
0.039283 0.702290 0.000000 
0.078566 0.709302 0.000000 
0.077647 0.716287 0.000000 
0.076728 0.723272 0.000000 
0.038364 0.761636 0.000000 
0.000000 0.800000 0.000000 
0.000000 0.747639 0.000000 
0.000000 0.820833 0.000000 
0.053750 0.856667 0.000000 
0.107500 0.892500 0.000000 
0.085000 0.915000 0.000000 
0.062500 0.937500 0.000000 
0.031250 0.937500 0.000000 
0.000000 0.937500 0.000000 
0.000000 0.879166 0.000000 
0.000000 0.937500 0.000000 
0.031250 0.937500 0.000000 
0.062500 0.937500 0.000000 
0.062500 0.968750 0.000000 
0.062500 1.000000 0.000000 
0.031250 1.000000 0.000000 
0.000000 1.000000 0.000000 
0.000000 0.968750 0.000000 
0.062500 0.000000 0.000000 
0.125000 0.000000 0.000000 
0.187500 0.000000 0.000000 
0.187500 0.045312 0.000000 
0.187500 0.090625 0.000000 
0.152273 0.103835 0.000000 
0.117045 0.117045 0.000000 
0.089773 0.089773 0.000000 
0.062500 0.062500 0.000000 
0.062500 0.031250 0.000000 
0.117045 0.117045 0.000000 
0.152273 0.103835 0.000000 
0.187500 0.090625 0.000000 
0.242463 0.104366 0.000000 
0.297426 0.118107 0.000000 
0.282542 0.192882 0.000000 
0.267657 0.267657 0.000000 
0.192882 0.282542 0.000000 
0.118107 0.297426 0.000000 
0.104366 0.242463 0.000000 
0.090625 0.187500 0.000000 
0.103835 0.152273 0.000000 
0.111187 0.312500 0.000000 
0.114647 0.304963 0.000000 
0.118107 0.297426 0.000000 
0.192882 0.282542 0.000000 
0.267657 0.267657 0.000000 
0.298044 0.298044 0.000000 
0.328432 0.328432 0.000000 
0.318720 0.365778 0.000000 
0.309008 0.403124 0.000000 
0.299853 0.412279 0.000000 
0.290698 0.421434 0.000000 
0.283713 0.422353 0.000000 
0.276728 0.423272 0.000000 
0.196317 0.396678 0.000000 
0.115906 0.370084 0.000000 
0.113546 0.341292 0.000000 
0.107500 0.392500 0.000000 
0.111703 0.381292 0.000000 
0.115906 0.370084 0.000000 
0.196317 0.396678 0.000000 
0.276728 0.423272 0.000000 
0.236360 0.463640 0.000000 
0.195992 0.504008 0.000000 
0.180533 0.491434 0.000000 
0.165074 0.478860 0.000000 
0.136287 0.435680 0.000000 
0.062500 0.437500 0.000000 
0.085000 0.415000 0.000000 
0.107500 0.392500 0.000000 
0.136287 0.435680 0.000000 
0.165074 0.478860 0.000000 
0.132574 0.511360 0.000000 
0.100074 0.543860 0.000000 
0.081287 0.515680 0.000000 
0.062500 0.487500 0.000000 
0.062500 0.462500 0.000000 
0.000000 0.550000 0.000000 
0.031250 0.518750 0.000000 
0.062500 0.487500 0.000000 
0.081287 0.515680 0.000000 
0.100074 0.543860 0.000000 
0.100828 0.546140 0.000000 
0.101581 0.548419 0.000000 
0.075000 0.575000 0.000000 
0.048419 0.601581 0.000000 
0.046140 0.600828 0.000000 
0.043860 0.600074 0.000000 
0.021930 0.585454 0.000000 
0.000000 0.570833 0.000000 
0.000000 0.560417 0.000000 
0.000000 0.643934 0.000000 
0.021930 0.622004 0.000000 
0.043860 0.600074 0.000000 
0.046140 0.600828 0.000000 
0.048419 0.601581 0.000000 
0.072647 0.646286 0.000000 
0.096876 0.690992 0.000000 
0.087721 0.700147 0.000000 
0.078566 0.709302 0.000000 
0.039283 0.702290 0.000000 
0.000000 0.695277 0.000000 
0.000000 0.669606 0.000000 
0.000000 0.820833 0.000000 
0.000000 0.810417 0.000000 
0.000000 0.800000 0.000000 
0.038364 0.761636 0.000000 
0.076728 0.723272 0.000000 
0.103322 0.803683 0.000000 
0.129916 0.884094 0.000000 
0.118708 0.888297 0.000000 
0.107500 0.892500 0.000000 
0.053750 0.856667 0.000000 
0.107500 0.892500 0.000000 
0.118708 0.888297 0.000000 
0.129916 0.884094 0.000000 
0.158708 0.886454 0.000000 
0.187500 0.888813 0.000000 
0.187500 0.944406 0.000000 
0.187500 1.000000 0.000000 
0.125000 1.000000 0.000000 
0.062500 1.000000 0.000000 
0.062500 0.968750 0.000000 
0.062500 0.937500 0.000000 
0.085000 0.915000 0.000000 
0.187500 0.000000 0.000000 
0.250000 0.000000 0.000000 
0.312500 0.000000 0.000000 
0.312500 0.055593 0.000000 
0.312500 0.111187 0.000000 
0.304963 0.114647 0.000000 
0.297426 0.118107 0.000000 
0.242463 0.104366 0.000000 
0.187500 0.090625 0.000000 
0.187500 0.045312 0.000000 
0.297426 0.118107 0.000000 
0.304963 0.114647 0.000000 
0.312500 0.111187 0.000000 
0.341292 0.113546 0.000000 
0.370084 0.115906 0.000000 
0.396678 0.196317 0.000000 
0.423272 0.276728 0.000000 
0.422353 0.283713 0.000000 
0.421434 0.290698 0.000000 
0.412279 0.299853 0.000000 
0.403124 0.309008 0.000000 
0.365778 0.318720 0.000000 
0.328432 0.328432 0.000000 
0.298044 0.298044 0.000000 
0.267657 0.267657 0.000000 
0.282542 0.192882 0.000000 
0.328432 0.328432 0.000000 
0.365778 0.318720 0.000000 
0.403124 0.309008 0.000000 
0.427353 0.353714 0.000000 
0.451581 0.398419 0.000000 
0.425000 0.425000 0.000000 
0.398419 0.451581 0.000000 
0.353714 0.427353 0.000000 
0.309008 0.403124 0.000000 
0.318720 0.365778 0.000000 
0.290698 0.421434 0.000000 
0.299853 0.412279 0.000000 
0.309008 0.403124 0.000000 
0.353714 0.427353 0.000000 
0.398419 0.451581 0.000000 
0.399173 0.453861 0.000000 
0.399926 0.456140 0.000000 
0.367426 0.488640 0.000000 
0.334926 0.521140 0.000000 
0.319467 0.508566 0.000000 
0.304008 0.495992 0.000000 
0.297353 0.458713 0.000000 
0.276728 0.423272 0.000000 
0.283713 0.422353 0.000000 
0.290698 0.421434 0.000000 
0.297353 0.458713 0.000000 
0.304008 0.495992 0.000000 
0.263640 0.536360 0.000000 
0.223272 0.576728 0.000000 
0.216287 0.577647 0.000000 
0.209302 0.578566 0.000000 
0.202647 0.541287 0.000000 
0.195992 0.504008 0.000000 
0.236360 0.463640 0.000000 
0.165074 0.478860 0.000000 
0.180533 0.491434 0.000000 
0.195992 0.504008 0.000000 
0.202647 0.541287 0.000000 
0.209302 0.578566 0.000000 
0.200147 0.587721 0.000000 
0.190992 0.596876 0.000000 
0.146286 0.572647 0.000000 
0.101581 0.548419 0.000000 
0.100828 0.546140 0.000000 
0.100074 0.543860 0.000000 
0.132574 0.511360 0.000000 
0.048419 0.601581 0.000000 
0.075000 0.575000 0.000000 
0.101581 0.548419 0.000000 
0.146286 0.572647 0.000000 
0.190992 0.596876 0.000000 
0.181280 0.634222 0.000000 
0.171568 0.671568 0.000000 
0.134222 0.681280 0.000000 
0.096876 0.690992 0.000000 
0.072647 0.646286 0.000000 
0.076728 0.723272 0.000000 
0.077647 0.716287 0.000000 
0.078566 0.709302 0.000000 
0.087721 0.700147 0.000000 
0.096876 0.690992 0.000000 
0.134222 0.681280 0.000000 
0.171568 0.671568 0.000000 
0.201956 0.701955 0.000000 
0.232343 0.732343 0.000000 
0.217459 0.807118 0.000000 
0.202574 0.881893 0.000000 
0.195037 0.885353 0.000000 
0.187500 0.888813 0.000000 
0.158708 0.886454 0.000000 
0.129916 0.884094 0.000000 
0.103322 0.803683 0.000000 
0.187500 0.888813 0.000000 
0.195037 0.885353 0.000000 
0.202574 0.881893 0.000000 
0.257537 0.895634 0.000000 
0.312500 0.909375 0.000000 
0.312500 0.954688 0.000000 
0.312500 1.000000 0.000000 
0.250000 1.000000 0.000000 
0.187500 1.000000 0.000000 
0.187500 0.944406 0.000000 
0.312500 0.000000 0.000000 
0.375000 0.000000 0.000000 
0.437500 0.000000 0.000000 
0.437500 0.031250 0.000000 
0.437500 0.062500 0.000000 
0.415000 0.085000 0.000000 
0.392500 0.107500 0.000000 
0.381292 0.111703 0.000000 
0.370084 0.115906 0.000000 
0.341292 0.113546 0.000000 
0.312500 0.111187 0.000000 
0.312500 0.055593 0.000000 
0.370084 0.115906 0.000000 
0.381292 0.111703 0.000000 
0.392500 0.107500 0.000000 
0.435680 0.136287 0.000000 
0.478860 0.165074 0.000000 
0.491434 0.180533 0.000000 
0.504008 0.195992 0.000000 
0.463640 0.236360 0.000000 
0.423272 0.276728 0.000000 
0.396678 0.196317 0.000000 
0.403124 0.309008 0.000000 
0.412279 0.299853 0.000000 
0.421434 0.290698 0.000000 
0.458713 0.297353 0.000000 
0.495992 0.304008 0.000000 
0.508566 0.319467 0.000000 
0.521140 0.334926 0.000000 
0.488640 0.367426 0.000000 
0.456140 0.399926 0.000000 
0.453861 0.399173 0.000000 
0.451581 0.398419 0.000000 
0.427353 0.353714 0.000000 
0.451581 0.398419 0.000000 
0.453861 0.399173 0.000000 
0.456140 0.399926 0.000000 
0.484320 0.418713 0.000000 
0.512500 0.437500 0.000000 
0.475000 0.475000 0.000000 
0.437500 0.512500 0.000000 
0.418713 0.484320 0.000000 
0.399926 0.456140 0.000000 
0.399173 0.453861 0.000000 
0.398419 0.451581 0.000000 
0.425000 0.425000 0.000000 
0.334926 0.521140 0.000000 
0.367426 0.488640 0.000000 
0.399926 0.456140 0.000000 
0.418713 0.484320 0.000000 
0.437500 0.512500 0.000000 
0.437500 0.537500 0.000000 
0.437500 0.562500 0.000000 
0.415000 0.585000 0.000000 
0.392500 0.607500 0.000000 
0.363713 0.564320 0.000000 
0.304008 0.495992 0.000000 
0.319467 0.508566 0.000000 
0.334926 0.521140 0.000000 
0.363713 0.564320 0.000000 
0.392500 0.607500 0.000000 
[...]
CELL_DATA 81
FIELD FieldData 1
material 1 81 int
1
1
1
1
1
1
1
1
1
1
1
1
1
1
1
1
1
1
1
1
1
1
1
1
1
1
1
1
1
1
1
1
1
1
1
1
1
1
1
1
1
1
1
1
1
1
1
1
1
1
1
1
1
1
1
1
1
1
1
1
1
1
1
1
1
1
1
1
1
1
1
1
1
1
1
1
1
1
1
1
1
POINT_DATA 880 SCALARS flux_g1 double 
LOOKUP_TABLE   default 
6.28406546e+00
6.48241080e+00
6.70285091e+00
6.91267200e+00
7.14679148e+00
6.91267200e+00
6.70285091e+00
6.48241080e+00
6.70294418e+00
6.91139123e+00
7.14743180e+00
7.55410386e+00
8.01645230e+00
8.20263944e+00
8.41523827e+00
8.02446132e+00
7.68496556e+00
7.15363949e+00
7.68506099e+00
8.02456220e+00
8.41490747e+00
9.03737409e+00
9.76255380e+00
9.80922829e+00
9.85946003e+00
9.32330211e+00
8.86327248e+00
8.23258603e+00
8.86330350e+00
9.32329323e+00
9.85917180e+00
1.01947500e+01
1.05554256e+01
1.06435496e+01
1.07353940e+01
1.07748624e+01
1.08288706e+01
1.05199334e+01
1.02375076e+01
9.50902881e+00
1.02371385e+01
1.05204996e+01
1.08283592e+01
1.11315342e+01
1.14522560e+01
1.15355962e+01
1.16418650e+01
1.09071801e+01
1.19188749e+01
1.23332218e+01
1.27715873e+01
1.28488151e+01
1.29361586e+01
1.24138486e+01
1.36911710e+01
1.42158980e+01
1.47871419e+01
1.48848581e+01
1.49852596e+01
1.51430525e+01
1.53335657e+01
1.44843034e+01
1.56769284e+01
1.68882541e+01
1.82501913e+01
1.83615822e+01
1.84864625e+01
1.80784114e+01
1.76985268e+01
1.66526820e+01
1.76983156e+01
1.80797206e+01
1.84855790e+01
1.90614021e+01
1.96617411e+01
1.92450486e+01
1.88504237e+01
1.82634784e+01
6.70294418e+00
7.15363949e+00
7.68496556e+00
8.02446132e+00
8.41523827e+00
8.20263944e+00
8.01645230e+00
7.55410386e+00
7.14743180e+00
6.91139123e+00
8.01574631e+00
8.20353652e+00
8.41425439e+00
9.03801823e+00
9.76196541e+00
1.03223496e+01
1.10000091e+01
1.03223496e+01
9.76196541e+00
9.03801823e+00
8.41425439e+00
8.20353652e+00
9.85873525e+00
9.81065186e+00
9.76209030e+00
1.03226028e+01
1.10002060e+01
1.16886494e+01
1.24468150e+01
1.27914340e+01
1.31647488e+01
1.31702664e+01
1.31781231e+01
1.31020834e+01
1.30281115e+01
1.16729195e+01
1.05550506e+01
1.01954599e+01
1.07343148e+01
1.06435896e+01
1.05549692e+01
1.16734162e+01
1.30277407e+01
1.30650730e+01
1.31419085e+01
1.27837576e+01
1.24409488e+01
1.15382591e+01
1.08281936e+01
1.07755066e+01
1.07343417e+01
1.15383257e+01
1.24408627e+01
1.25049942e+01
1.25960588e+01
1.20028846e+01
1.14519479e+01
1.11319061e+01
1.16419210e+01
1.15363868e+01
1.14518559e+01
1.20031410e+01
1.25960978e+01
1.26356817e+01
1.26751766e+01
1.27498405e+01
1.28413110e+01
1.28066023e+01
1.27718713e+01
1.23334371e+01
1.19191723e+01
1.17782048e+01
1.29365924e+01
1.28483990e+01
1.27721562e+01
1.28064480e+01
1.28414470e+01
1.37330063e+01
1.47163426e+01
1.47504195e+01
1.47868417e+01
1.42169073e+01
1.36911607e+01
1.33055063e+01
1.56771720e+01
1.55027669e+01
1.53336567e+01
1.51435546e+01
1.49851604e+01
1.65746708e+01
1.83970100e+01
1.83225257e+01
1.82502348e+01
1.68890493e+01
1.82508437e+01
1.83228409e+01
1.83965830e+01
1.88271890e+01
1.92818552e+01
2.03180051e+01
2.14293615e+01
2.05042225e+01
1.96621557e+01
1.90599661e+01
1.84865157e+01
1.83616170e+01
7.68506099e+00
8.23258603e+00
8.86327248e+00
9.32330211e+00
9.85946003e+00
9.80922829e+00
9.76255380e+00
9.03737409e+00
8.41490747e+00
8.02456220e+00
9.76209030e+00
9.81065186e+00
9.85873525e+00
1.01954599e+01
1.05550506e+01
1.16729195e+01
1.30281115e+01
1.31020834e+01
1.31781231e+01
1.31702664e+01
1.31647488e+01
1.27914340e+01
1.24468150e+01
1.16886494e+01
1.10002060e+01
1.03226028e+01
1.24466241e+01
1.27916290e+01
1.31646459e+01
1.40544382e+01
1.50356870e+01
1.50270729e+01
1.50356870e+01
1.40544382e+01
1.31646459e+01
1.27916290e+01
1.31778480e+01
1.31701829e+01
1.31648100e+01
1.40540848e+01
1.50358836e+01
1.50794381e+01
1.51233235e+01
1.51351469e+01
1.51730672e+01
1.47724556e+01
1.43867125e+01
1.37612145e+01
1.30278698e+01
1.31025512e+01
1.31778859e+01
1.37612744e+01
1.43867271e+01
1.44350960e+01
1.45251905e+01
1.44499723e+01
1.43762907e+01
1.37381449e+01
1.31420070e+01
1.30647523e+01
1.24407430e+01
1.27834950e+01
1.31422668e+01
1.37383298e+01
1.43760060e+01
1.43971218e+01
1.44199199e+01
1.35020681e+01
1.26750984e+01
1.26358571e+01
1.25960210e+01
1.25039240e+01
1.28412202e+01
1.27498491e+01
1.26752687e+01
1.35017740e+01
1.44198932e+01
1.48586700e+01
1.53269303e+01
1.50069136e+01
1.47159599e+01
1.37333768e+01
1.49854747e+01
1.48849619e+01
1.47871549e+01
1.47502430e+01
1.47158035e+01
1.50071791e+01
1.53270324e+01
1.61915493e+01
1.71255636e+01
1.81874285e+01
1.93679869e+01
1.93251364e+01
1.92812332e+01
1.88275835e+01
1.83970466e+01
1.65742676e+01
1.92820958e+01
1.93231696e+01
1.93684199e+01
2.04127933e+01
2.15598810e+01
2.24505392e+01
2.33928338e+01
2.23697432e+01
2.14292473e+01
2.03182846e+01
8.86330350e+00
9.50902881e+00
1.02375076e+01
1.05199334e+01
1.08288706e+01
1.07748624e+01
1.07353940e+01
1.06435496e+01
1.05554256e+01
1.01947500e+01
9.85917180e+00
9.32329323e+00
1.05549692e+01
1.06435896e+01
1.07343148e+01
1.15382591e+01
1.24409488e+01
1.27837576e+01
1.31419085e+01
1.30650730e+01
1.30277407e+01
1.16734162e+01
1.31648100e+01
1.31701829e+01
1.31778480e+01
1.37612145e+01
1.43867125e+01
1.47724556e+01
1.51730672e+01
1.51351469e+01
1.51233235e+01
1.50794381e+01
1.50358836e+01
1.40540848e+01
1.50358368e+01
1.50794389e+01
1.51233457e+01
1.57988831e+01
1.65167060e+01
1.64985119e+01
1.65167060e+01
1.57988831e+01
1.51233457e+01
1.50794389e+01
1.50358368e+01
1.50268768e+01
1.51730489e+01
1.51352658e+01
1.51232970e+01
1.57989573e+01
1.65166622e+01
1.69034657e+01
1.73059798e+01
1.73237101e+01
1.73542387e+01
1.62141605e+01
1.43867977e+01
1.47724608e+01
1.51729832e+01
1.62142375e+01
1.73541749e+01
1.74747174e+01
1.75975960e+01
1.59447367e+01
1.45250798e+01
1.44351062e+01
1.44199743e+01
1.43967608e+01
1.43759355e+01
1.44502796e+01
1.45251361e+01
1.59447141e+01
1.75975261e+01
1.81113141e+01
1.86479724e+01
1.87249528e+01
1.88035941e+01
1.79051672e+01
1.71252755e+01
1.61921109e+01
1.53270071e+01
1.48587003e+01
1.71251792e+01
1.79056990e+01
1.88034239e+01
1.99793938e+01
2.12542546e+01
2.17075369e+01
2.21847761e+01
2.18607229e+01
2.15595389e+01
2.04135492e+01
1.93678413e+01
1.81873254e+01
2.15601635e+01
2.18596000e+01
2.21854818e+01
2.31790814e+01
2.42301245e+01
2.48781611e+01
2.55521674e+01
2.44314388e+01
2.33926075e+01
2.24506503e+01
1.02371385e+01
1.09071801e+01
1.16418650e+01
1.15355962e+01
1.14522560e+01
1.11315342e+01
1.08283592e+01
1.05204996e+01
1.08281936e+01
1.11319061e+01
1.14519479e+01
1.20028846e+01
1.25960588e+01
1.25049942e+01
1.24408627e+01
1.15383257e+01
1.07343417e+01
1.07755066e+01
1.31420070e+01
1.37381449e+01
1.43762907e+01
1.44499723e+01
1.45251905e+01
1.44350960e+01
1.43867271e+01
1.37612744e+01
1.31778859e+01
1.31025512e+01
1.30278698e+01
1.30647523e+01
1.51232970e+01
1.51352658e+01
1.51730489e+01
1.62141605e+01
1.73542387e+01
1.73237101e+01
1.73059798e+01
1.69034657e+01
1.65166622e+01
1.57989573e+01
1.65167549e+01
1.69034328e+01
1.73059644e+01
1.82630496e+01
1.93188941e+01
1.82630496e+01
1.73059644e+01
1.69034328e+01
1.65167549e+01
1.64985310e+01
1.73542119e+01
1.73236616e+01
1.73059690e+01
1.82630512e+01
1.93189077e+01
2.02401545e+01
2.12171795e+01
2.16115321e+01
2.20298121e+01
2.02115308e+01
1.86478870e+01
1.81114177e+01
1.75975487e+01
1.74747922e+01
1.88034125e+01
1.87252814e+01
1.86478716e+01
2.02116147e+01
2.20297873e+01
2.33013577e+01
2.46729128e+01
2.47590383e+01
2.48464987e+01
2.29226781e+01
2.12545121e+01
1.99794296e+01
2.12545916e+01
2.29225774e+01
2.48465107e+01
2.54771670e+01
2.61299127e+01
2.62852518e+01
2.64418990e+01
2.64824164e+01
2.65362053e+01
2.53336025e+01
2.42291462e+01
2.31794426e+01
2.21852347e+01
2.17077224e+01
2.42291286e+01
2.53335467e+01
2.65360897e+01
2.72097533e+01
2.79082479e+01
2.66903538e+01
2.55520126e+01
2.48783577e+01
1.19188749e+01
1.24138486e+01
1.29361586e+01
1.28488151e+01
1.27715873e+01
1.23332218e+01
1.16419210e+01
1.17782048e+01
1.19191723e+01
1.23334371e+01
1.27718713e+01
1.28066023e+01
1.28413110e+01
1.27498405e+01
1.26751766e+01
1.26356817e+01
1.25960978e+01
1.20031410e+01
1.14518559e+01
1.15363868e+01
1.25960210e+01
1.26358571e+01
1.26750984e+01
1.35020681e+01
1.44199199e+01
1.43971218e+01
1.43760060e+01
1.37383298e+01
1.31422668e+01
1.27834950e+01
1.24407430e+01
1.25039240e+01
1.43867977e+01
1.44351062e+01
1.45250798e+01
1.59447367e+01
1.75975960e+01
1.74747174e+01
1.73541749e+01
1.62142375e+01
1.51729832e+01
1.47724608e+01
1.73059690e+01
1.73236616e+01
1.73542119e+01
1.74747922e+01
1.75975487e+01
1.81114177e+01
1.86478870e+01
2.02115308e+01
2.20298121e+01
2.16115321e+01
2.12171795e+01
2.02401545e+01
1.93189077e+01
1.82630512e+01
2.12170771e+01
2.16116645e+01
2.20298576e+01
2.33014780e+01
2.46729822e+01
2.57975723e+01
2.70402163e+01
2.57975723e+01
2.46729822e+01
2.33014780e+01
2.20298576e+01
2.16116645e+01
2.48460600e+01
2.47592977e+01
2.46728194e+01
2.57978323e+01
2.70400568e+01
2.83021090e+01
2.96330194e+01
3.02373838e+01
3.08709283e+01
3.08765526e+01
3.08843490e+01
3.07508399e+01
3.06193830e+01
2.82588636e+01
2.61305355e+01
2.54768560e+01
2.64418413e+01
2.62850040e+01
2.61305996e+01
2.82587215e+01
3.06194568e+01
3.06570170e+01
3.07269353e+01
3.05032714e+01
3.02849257e+01
2.82885413e+01
2.65372035e+01
2.64820792e+01
2.64418473e+01
2.82876294e+01
3.02846957e+01
2.90611405e+01
2.79084685e+01
2.72096754e+01
1.36911710e+01
1.44843034e+01
1.53335657e+01
1.51430525e+01
1.49852596e+01
1.48848581e+01
1.47871419e+01
1.42158980e+01
1.27721562e+01
1.28483990e+01
1.29365924e+01
1.33055063e+01
1.36911607e+01
1.42169073e+01
1.47868417e+01
1.47504195e+01
1.47163426e+01
1.37330063e+01
1.28414470e+01
1.28064480e+01
1.26752687e+01
1.27498491e+01
1.28412202e+01
1.37333768e+01
1.47159599e+01
1.50069136e+01
1.53269303e+01
1.48586700e+01
1.44198932e+01
1.35017740e+01
1.45251361e+01
1.44502796e+01
1.43759355e+01
1.43967608e+01
1.44199743e+01
1.48587003e+01
1.53270071e+01
1.61921109e+01
1.71252755e+01
1.79051672e+01
1.88035941e+01
1.87249528e+01
1.86479724e+01
1.81113141e+01
1.75975261e+01
1.59447141e+01
1.86478716e+01
1.87252814e+01
1.88034125e+01
1.99794296e+01
2.12545121e+01
2.29226781e+01
2.48464987e+01
2.47590383e+01
2.46729128e+01
2.33013577e+01
2.20297873e+01
2.02116147e+01
2.46728194e+01
2.47592977e+01
2.48460600e+01
2.54768560e+01
2.61305355e+01
2.82588636e+01
3.06193830e+01
3.07508399e+01
3.08843490e+01
3.08765526e+01
3.08709283e+01
3.02373838e+01
2.96330194e+01
2.83021090e+01
2.70400568e+01
2.57978323e+01
2.96328303e+01
3.02372083e+01
3.08711280e+01
3.24110056e+01
3.40412155e+01
3.40323922e+01
3.40412155e+01
3.24110056e+01
3.08711280e+01
3.02372083e+01
3.08843152e+01
3.08767025e+01
3.08712791e+01
3.24108639e+01
3.40413290e+01
3.41134781e+01
3.41862750e+01
3.41937776e+01
3.42132186e+01
3.36145645e+01
3.30325728e+01
3.19364379e+01
3.06195731e+01
3.07507662e+01
3.08846643e+01
3.19354536e+01
3.30326041e+01
3.18518974e+01
3.07267522e+01
3.06564965e+01
1.56769284e+01
1.66526820e+01
1.76985268e+01
1.80784114e+01
1.84864625e+01
1.83615822e+01
1.82501913e+01
1.68882541e+01
1.53336567e+01
1.55027669e+01
1.56771720e+01
1.68890493e+01
1.82502348e+01
1.83225257e+01
1.83970100e+01
1.65746708e+01
1.49851604e+01
1.51435546e+01
1.47158035e+01
1.47502430e+01
1.47871549e+01
1.48849619e+01
1.49854747e+01
1.65742676e+01
1.83970466e+01
1.88275835e+01
1.92812332e+01
1.93251364e+01
1.93679869e+01
1.81874285e+01
1.71255636e+01
1.61915493e+01
1.53270324e+01
1.50071791e+01
1.71251792e+01
1.81873254e+01
1.93678413e+01
2.04135492e+01
2.15595389e+01
2.18607229e+01
2.21847761e+01
2.17075369e+01
2.12542546e+01
1.99793938e+01
1.88034239e+01
1.79056990e+01
2.12545916e+01
2.17077224e+01
2.21852347e+01
2.31794426e+01
2.42291462e+01
2.53336025e+01
2.65362053e+01
2.64824164e+01
2.64418990e+01
2.62852518e+01
2.61299127e+01
2.54771670e+01
2.48465107e+01
2.29225774e+01
2.61305996e+01
2.62850040e+01
2.64418413e+01
2.82885413e+01
3.02849257e+01
3.05032714e+01
3.07269353e+01
3.06570170e+01
3.06194568e+01
2.82587215e+01
3.08712791e+01
3.08767025e+01
3.08843152e+01
3.19364379e+01
3.30325728e+01
3.36145645e+01
3.42132186e+01
3.41937776e+01
3.41862750e+01
3.41134781e+01
3.40413290e+01
3.24108639e+01
3.40411343e+01
3.41136792e+01
3.41860802e+01
3.50568978e+01
3.59513972e+01
3.62034375e+01
3.64591503e+01
3.64517933e+01
3.64591503e+01
3.62034375e+01
3.59513972e+01
3.50568978e+01
3.41860802e+01
3.41136792e+01
3.40411343e+01
3.40324872e+01
3.41858360e+01
3.50566700e+01
3.59513487e+01
3.50690102e+01
3.42129698e+01
3.41943154e+01
1.76983156e+01
1.82634784e+01
1.88504237e+01
1.92450486e+01
1.96617411e+01
1.90614021e+01
1.84855790e+01
1.80797206e+01
1.82508437e+01
1.83616170e+01
1.84865157e+01
1.90599661e+01
1.96621557e+01
2.05042225e+01
2.14293615e+01
2.03180051e+01
1.92818552e+01
1.88271890e+01
1.83965830e+01
1.83228409e+01
1.93684199e+01
1.93231696e+01
1.92820958e+01
2.03182846e+01
2.14292473e+01
2.23697432e+01
2.33928338e+01
2.24505392e+01
2.15598810e+01
2.04127933e+01
2.15601635e+01
2.24506503e+01
2.33926075e+01
2.44314388e+01
2.55521674e+01
2.48781611e+01
2.42301245e+01
2.31790814e+01
2.21854818e+01
2.18596000e+01
2.42291286e+01
2.48783577e+01
2.55520126e+01
2.66903538e+01
2.79082479e+01
2.72097533e+01
2.65360897e+01
2.53335467e+01
2.65372035e+01
2.72096754e+01
2.79084685e+01
2.90611405e+01
3.02846957e+01
2.82876294e+01
2.64418473e+01
2.64820792e+01
3.07267522e+01
3.18518974e+01
3.30326041e+01
3.19354536e+01
3.08846643e+01
3.07507662e+01
3.06195731e+01
3.06564965e+01
3.42129698e+01
3.50690102e+01
3.59513487e+01
3.50566700e+01
3.41858360e+01
3.41943154e+01
3.64590050e+01
3.70727499e+01
3.76995358e+01
3.70727499e+01
3.64590050e+01
3.64517289e+01
 
