# vtk DataFile Version 3.0 
Date: 3/21/2016   Time: 14:1
ASCII 
DATASET UNSTRUCTURED_GRID 
 
POINTS 512 float 
1.000000 0.000000 0.000000 
1.000000 0.080221 0.000000 
1.000000 0.160441 0.000000 
0.966941 0.155668 0.000000 
0.933882 0.150896 0.000000 
0.942203 0.075448 0.000000 
0.950524 0.000000 0.000000 
0.975262 0.000000 0.000000 
1.000000 0.160441 0.000000 
1.000000 0.393069 0.000000 
1.000000 0.625698 0.000000 
0.967703 0.537498 0.000000 
0.935406 0.449299 0.000000 
0.934644 0.300098 0.000000 
0.933882 0.150896 0.000000 
0.966941 0.155668 0.000000 
1.000000 0.625698 0.000000 
1.000000 0.660959 0.000000 
1.000000 0.696219 0.000000 
0.969478 0.670855 0.000000 
0.938956 0.645490 0.000000 
0.937181 0.547395 0.000000 
0.935406 0.449299 0.000000 
0.967703 0.537498 0.000000 
1.000000 0.696219 0.000000 
1.000000 0.744380 0.000000 
1.000000 0.792541 0.000000 
0.970563 0.764327 0.000000 
0.941126 0.736113 0.000000 
0.940041 0.690802 0.000000 
0.938956 0.645490 0.000000 
0.969478 0.670855 0.000000 
1.000000 0.792541 0.000000 
1.000000 0.800485 0.000000 
1.000000 0.808429 0.000000 
0.953354 0.785374 0.000000 
0.906709 0.762320 0.000000 
0.923917 0.749216 0.000000 
0.941126 0.736113 0.000000 
0.970563 0.764327 0.000000 
1.000000 0.808429 0.000000 
1.000000 0.827440 0.000000 
1.000000 0.846451 0.000000 
0.939477 0.851819 0.000000 
0.878954 0.857187 0.000000 
0.892832 0.809754 0.000000 
0.906709 0.762320 0.000000 
0.953354 0.785374 0.000000 
1.000000 0.846451 0.000000 
1.000000 0.872240 0.000000 
1.000000 0.898030 0.000000 
0.867185 0.927217 0.000000 
0.734371 0.956404 0.000000 
0.806663 0.906796 0.000000 
0.878954 0.857187 0.000000 
0.939477 0.851819 0.000000 
1.000000 0.898030 0.000000 
1.000000 0.949015 0.000000 
1.000000 1.000000 0.000000 
0.904705 1.000000 0.000000 
0.809411 1.000000 0.000000 
0.771891 0.978202 0.000000 
0.734371 0.956404 0.000000 
0.867185 0.927217 0.000000 
0.950524 0.000000 0.000000 
0.942203 0.075448 0.000000 
0.933882 0.150896 0.000000 
0.878210 0.141512 0.000000 
0.822538 0.132127 0.000000 
0.799459 0.066063 0.000000 
0.776379 0.000000 0.000000 
0.863452 0.000000 0.000000 
0.933882 0.150896 0.000000 
0.934644 0.300098 0.000000 
0.935406 0.449299 0.000000 
0.912961 0.388005 0.000000 
0.890516 0.326711 0.000000 
0.856527 0.229419 0.000000 
0.822538 0.132127 0.000000 
0.878210 0.141512 0.000000 
0.935406 0.449299 0.000000 
0.937181 0.547395 0.000000 
0.938956 0.645490 0.000000 
0.912161 0.533697 0.000000 
0.885366 0.421905 0.000000 
0.887941 0.374308 0.000000 
0.890516 0.326711 0.000000 
0.912961 0.388005 0.000000 
0.938956 0.645490 0.000000 
0.940041 0.690802 0.000000 
0.941126 0.736113 0.000000 
0.906540 0.702964 0.000000 
0.871955 0.669816 0.000000 
0.878661 0.545860 0.000000 
0.885366 0.421905 0.000000 
0.912161 0.533697 0.000000 
0.941126 0.736113 0.000000 
0.923917 0.749216 0.000000 
0.906709 0.762320 0.000000 
0.826585 0.781956 0.000000 
0.746460 0.801591 0.000000 
0.809208 0.735704 0.000000 
0.871955 0.669816 0.000000 
0.906540 0.702964 0.000000 
0.906709 0.762320 0.000000 
0.892832 0.809754 0.000000 
0.878954 0.857187 0.000000 
0.777680 0.866170 0.000000 
0.676406 0.875152 0.000000 
0.711433 0.838372 0.000000 
0.746460 0.801591 0.000000 
0.826585 0.781956 0.000000 
0.878954 0.857187 0.000000 
0.806663 0.906796 0.000000 
0.734371 0.956404 0.000000 
0.700061 0.964942 0.000000 
0.665751 0.973479 0.000000 
0.671078 0.924316 0.000000 
0.676406 0.875152 0.000000 
0.777680 0.866170 0.000000 
0.734371 0.956404 0.000000 
0.771891 0.978202 0.000000 
0.809411 1.000000 0.000000 
0.736144 1.000000 0.000000 
0.662877 1.000000 0.000000 
0.664314 0.986739 0.000000 
0.665751 0.973479 0.000000 
0.700061 0.964942 0.000000 
0.776379 0.000000 0.000000 
0.799459 0.066063 0.000000 
0.822538 0.132127 0.000000 
0.771515 0.127270 0.000000 
0.720492 0.122413 0.000000 
0.725706 0.061206 0.000000 
0.730920 0.000000 0.000000 
0.753650 0.000000 0.000000 
0.822538 0.132127 0.000000 
0.856527 0.229419 0.000000 
0.890516 0.326711 0.000000 
0.817821 0.323481 0.000000 
0.745127 0.320251 0.000000 
0.732810 0.221332 0.000000 
0.720492 0.122413 0.000000 
0.771515 0.127270 0.000000 
0.890516 0.326711 0.000000 
0.887941 0.374308 0.000000 
0.885366 0.421905 0.000000 
0.852303 0.403485 0.000000 
0.819241 0.385065 0.000000 
0.782184 0.352658 0.000000 
0.745127 0.320251 0.000000 
0.817821 0.323481 0.000000 
0.885366 0.421905 0.000000 
0.878661 0.545860 0.000000 
0.871955 0.669816 0.000000 
0.849340 0.648140 0.000000 
0.826724 0.626464 0.000000 
0.822982 0.505764 0.000000 
0.819241 0.385065 0.000000 
0.852303 0.403485 0.000000 
0.871955 0.669816 0.000000 
0.809208 0.735704 0.000000 
0.746460 0.801591 0.000000 
0.721275 0.718855 0.000000 
0.696089 0.636119 0.000000 
0.761406 0.631292 0.000000 
0.826724 0.626464 0.000000 
0.849340 0.648140 0.000000 
0.746460 0.801591 0.000000 
0.711433 0.838372 0.000000 
0.676406 0.875152 0.000000 
0.655986 0.803413 0.000000 
0.635565 0.731674 0.000000 
0.665827 0.683897 0.000000 
0.696089 0.636119 0.000000 
0.721275 0.718855 0.000000 
0.676406 0.875152 0.000000 
0.671078 0.924316 0.000000 
0.665751 0.973479 0.000000 
0.613871 0.903801 0.000000 
0.561991 0.834122 0.000000 
0.598778 0.782898 0.000000 
0.635565 0.731674 0.000000 
0.655986 0.803413 0.000000 
0.665751 0.973479 0.000000 
0.664314 0.986739 0.000000 
0.662877 1.000000 0.000000 
0.608032 1.000000 0.000000 
0.553186 1.000000 0.000000 
0.557589 0.917061 0.000000 
0.561991 0.834122 0.000000 
0.613871 0.903801 0.000000 
0.730920 0.000000 0.000000 
0.725706 0.061206 0.000000 
0.720492 0.122413 0.000000 
0.703614 0.159185 0.000000 
0.686736 0.195956 0.000000 
0.697534 0.097978 0.000000 
0.708332 0.000000 0.000000 
0.719626 0.000000 0.000000 
0.720492 0.122413 0.000000 
0.732810 0.221332 0.000000 
0.745127 0.320251 0.000000 
0.709258 0.318657 0.000000 
0.673389 0.317063 0.000000 
0.680063 0.256510 0.000000 
0.686736 0.195956 0.000000 
0.703614 0.159185 0.000000 
0.745127 0.320251 0.000000 
0.782184 0.352658 0.000000 
0.819241 0.385065 0.000000 
0.740636 0.402588 0.000000 
0.662032 0.420111 0.000000 
0.667710 0.368587 0.000000 
0.673389 0.317063 0.000000 
0.709258 0.318657 0.000000 
0.819241 0.385065 0.000000 
0.822982 0.505764 0.000000 
0.826724 0.626464 0.000000 
0.741961 0.545222 0.000000 
0.657197 0.463981 0.000000 
0.659614 0.442046 0.000000 
0.662032 0.420111 0.000000 
0.740636 0.402588 0.000000 
0.826724 0.626464 0.000000 
0.761406 0.631292 0.000000 
0.696089 0.636119 0.000000 
0.664905 0.580151 0.000000 
0.633722 0.524183 0.000000 
0.645460 0.494082 0.000000 
0.657197 0.463981 0.000000 
0.741961 0.545222 0.000000 
0.696089 0.636119 0.000000 
0.665827 0.683897 0.000000 
0.635565 0.731674 0.000000 
0.618106 0.670338 0.000000 
0.600647 0.609002 0.000000 
0.617185 0.566593 0.000000 
0.633722 0.524183 0.000000 
0.664905 0.580151 0.000000 
0.635565 0.731674 0.000000 
0.598778 0.782898 0.000000 
0.561991 0.834122 0.000000 
0.560021 0.776180 0.000000 
0.558051 0.718238 0.000000 
0.579349 0.663620 0.000000 
0.600647 0.609002 0.000000 
0.618106 0.670338 0.000000 
0.561991 0.834122 0.000000 
0.557589 0.917061 0.000000 
0.553186 1.000000 0.000000 
0.500682 1.000000 0.000000 
0.448179 1.000000 0.000000 
0.503115 0.859119 0.000000 
0.558051 0.718238 0.000000 
0.560021 0.776180 0.000000 
0.708332 0.000000 0.000000 
0.697534 0.097978 0.000000 
0.686736 0.195956 0.000000 
0.635244 0.141595 0.000000 
0.583753 0.087234 0.000000 
0.489919 0.043617 0.000000 
0.396085 0.000000 0.000000 
0.552208 0.000000 0.000000 
0.686736 0.195956 0.000000 
0.680063 0.256510 0.000000 
0.673389 0.317063 0.000000 
0.637020 0.285565 0.000000 
0.600652 0.254066 0.000000 
0.592202 0.170650 0.000000 
0.583753 0.087234 0.000000 
0.635244 0.141595 0.000000 
0.673389 0.317063 0.000000 
0.667710 0.368587 0.000000 
0.662032 0.420111 0.000000 
0.536002 0.449243 0.000000 
0.409972 0.478375 0.000000 
0.505312 0.366221 0.000000 
0.600652 0.254066 0.000000 
0.637020 0.285565 0.000000 
0.662032 0.420111 0.000000 
0.659614 0.442046 0.000000 
0.657197 0.463981 0.000000 
0.544131 0.493538 0.000000 
0.431065 0.523096 0.000000 
0.420519 0.500736 0.000000 
0.409972 0.478375 0.000000 
0.536002 0.449243 0.000000 
0.657197 0.463981 0.000000 
0.645460 0.494082 0.000000 
0.633722 0.524183 0.000000 
0.568614 0.553847 0.000000 
0.503506 0.583511 0.000000 
0.467286 0.553303 0.000000 
0.431065 0.523096 0.000000 
0.544131 0.493538 0.000000 
0.633722 0.524183 0.000000 
0.617185 0.566593 0.000000 
0.600647 0.609002 0.000000 
0.568078 0.634856 0.000000 
0.535508 0.660709 0.000000 
0.519507 0.622110 0.000000 
0.503506 0.583511 0.000000 
0.568614 0.553847 0.000000 
0.600647 0.609002 0.000000 
0.579349 0.663620 0.000000 
0.558051 0.718238 0.000000 
0.535672 0.733755 0.000000 
0.513293 0.749272 0.000000 
0.524401 0.704991 0.000000 
0.535508 0.660709 0.000000 
0.568078 0.634856 0.000000 
0.558051 0.718238 0.000000 
0.503115 0.859119 0.000000 
0.448179 1.000000 0.000000 
0.432978 1.000000 0.000000 
0.417777 1.000000 0.000000 
0.465535 0.874636 0.000000 
0.513293 0.749272 0.000000 
0.535672 0.733755 0.000000 
0.396085 0.000000 0.000000 
0.489919 0.043617 0.000000 
0.583753 0.087234 0.000000 
0.475158 0.079908 0.000000 
0.366564 0.072582 0.000000 
0.318123 0.036291 0.000000 
0.269682 0.000000 0.000000 
0.332884 0.000000 0.000000 
0.583753 0.087234 0.000000 
0.592202 0.170650 0.000000 
0.600652 0.254066 0.000000 
0.574531 0.231443 0.000000 
0.548411 0.208820 0.000000 
0.457487 0.140701 0.000000 
0.366564 0.072582 0.000000 
0.475158 0.079908 0.000000 
0.600652 0.254066 0.000000 
0.505312 0.366221 0.000000 
0.409972 0.478375 0.000000 
0.442022 0.391361 0.000000 
0.474073 0.304346 0.000000 
0.511242 0.256583 0.000000 
0.548411 0.208820 0.000000 
0.574531 0.231443 0.000000 
0.409972 0.478375 0.000000 
0.420519 0.500736 0.000000 
0.431065 0.523096 0.000000 
0.351212 0.543971 0.000000 
0.271358 0.564846 0.000000 
0.372715 0.434596 0.000000 
0.474073 0.304346 0.000000 
0.442022 0.391361 0.000000 
0.431065 0.523096 0.000000 
0.467286 0.553303 0.000000 
0.503506 0.583511 0.000000 
0.417970 0.629020 0.000000 
0.332434 0.674528 0.000000 
0.301896 0.619687 0.000000 
0.271358 0.564846 0.000000 
0.351212 0.543971 0.000000 
0.503506 0.583511 0.000000 
0.519507 0.622110 0.000000 
0.535508 0.660709 0.000000 
0.462426 0.718721 0.000000 
0.389345 0.776733 0.000000 
0.360889 0.725631 0.000000 
0.332434 0.674528 0.000000 
0.417970 0.629020 0.000000 
0.535508 0.660709 0.000000 
0.524401 0.704991 0.000000 
0.513293 0.749272 0.000000 
0.431644 0.813226 0.000000 
0.349994 0.877179 0.000000 
0.369669 0.826956 0.000000 
0.389345 0.776733 0.000000 
0.462426 0.718721 0.000000 
0.513293 0.749272 0.000000 
0.465535 0.874636 0.000000 
0.417777 1.000000 0.000000 
0.359827 1.000000 0.000000 
0.301877 1.000000 0.000000 
0.325936 0.938589 0.000000 
0.349994 0.877179 0.000000 
0.431644 0.813226 0.000000 
0.269682 0.000000 0.000000 
0.318123 0.036291 0.000000 
0.366564 0.072582 0.000000 
0.329608 0.101886 0.000000 
0.292653 0.131190 0.000000 
0.174227 0.065595 0.000000 
0.055801 0.000000 0.000000 
0.162742 0.000000 0.000000 
0.366564 0.072582 0.000000 
0.457487 0.140701 0.000000 
0.548411 0.208820 0.000000 
0.375319 0.255339 0.000000 
0.202228 0.301858 0.000000 
0.247441 0.216524 0.000000 
0.292653 0.131190 0.000000 
0.329608 0.101886 0.000000 
0.548411 0.208820 0.000000 
0.511242 0.256583 0.000000 
0.474073 0.304346 0.000000 
0.319424 0.372571 0.000000 
0.164775 0.440795 0.000000 
0.183501 0.371327 0.000000 
0.202228 0.301858 0.000000 
0.375319 0.255339 0.000000 
0.474073 0.304346 0.000000 
0.372715 0.434596 0.000000 
0.271358 0.564846 0.000000 
0.175496 0.589905 0.000000 
0.079635 0.614965 0.000000 
0.122205 0.527880 0.000000 
0.164775 0.440795 0.000000 
0.319424 0.372571 0.000000 
0.271358 0.564846 0.000000 
0.301896 0.619687 0.000000 
0.332434 0.674528 0.000000 
0.279891 0.697925 0.000000 
0.227348 0.721323 0.000000 
0.153491 0.668144 0.000000 
0.079635 0.614965 0.000000 
0.175496 0.589905 0.000000 
0.332434 0.674528 0.000000 
0.360889 0.725631 0.000000 
0.389345 0.776733 0.000000 
0.331836 0.772662 0.000000 
0.274326 0.768590 0.000000 
0.250837 0.744957 0.000000 
0.227348 0.721323 0.000000 
0.279891 0.697925 0.000000 
0.389345 0.776733 0.000000 
0.369669 0.826956 0.000000 
0.349994 0.877179 0.000000 
0.309245 0.861069 0.000000 
0.268496 0.844959 0.000000 
0.271411 0.806774 0.000000 
0.274326 0.768590 0.000000 
0.331836 0.772662 0.000000 
0.349994 0.877179 0.000000 
0.325936 0.938589 0.000000 
0.301877 1.000000 0.000000 
0.265267 1.000000 0.000000 
0.228657 1.000000 0.000000 
0.248577 0.922480 0.000000 
0.268496 0.844959 0.000000 
0.309245 0.861069 0.000000 
0.055801 0.000000 0.000000 
0.174227 0.065595 0.000000 
0.292653 0.131190 0.000000 
0.146327 0.202942 0.000000 
0.000000 0.274694 0.000000 
0.000000 0.137347 0.000000 
0.000000 0.000000 0.000000 
0.027901 0.000000 0.000000 
0.292653 0.131190 0.000000 
0.247441 0.216524 0.000000 
0.202228 0.301858 0.000000 
0.101114 0.329033 0.000000 
0.000000 0.356208 0.000000 
0.000000 0.315451 0.000000 
0.000000 0.274694 0.000000 
0.146327 0.202942 0.000000 
0.202228 0.301858 0.000000 
0.183501 0.371327 0.000000 
0.164775 0.440795 0.000000 
0.082388 0.446195 0.000000 
0.000000 0.451596 0.000000 
0.000000 0.403902 0.000000 
0.000000 0.356208 0.000000 
0.101114 0.329033 0.000000 
0.164775 0.440795 0.000000 
0.122205 0.527880 0.000000 
0.079635 0.614965 0.000000 
0.039817 0.625374 0.000000 
0.000000 0.635783 0.000000 
0.000000 0.543689 0.000000 
0.000000 0.451596 0.000000 
0.082388 0.446195 0.000000 
0.079635 0.614965 0.000000 
0.153491 0.668144 0.000000 
0.227348 0.721323 0.000000 
0.113674 0.719144 0.000000 
0.000000 0.716965 0.000000 
0.000000 0.676374 0.000000 
0.000000 0.635783 0.000000 
0.039817 0.625374 0.000000 
0.227348 0.721323 0.000000 
0.250837 0.744957 0.000000 
0.274326 0.768590 0.000000 
0.137163 0.758880 0.000000 
0.000000 0.749170 0.000000 
0.000000 0.733067 0.000000 
0.000000 0.716965 0.000000 
0.113674 0.719144 0.000000 
0.274326 0.768590 0.000000 
0.271411 0.806774 0.000000 
0.268496 0.844959 0.000000 
0.134248 0.864596 0.000000 
0.000000 0.884233 0.000000 
0.000000 0.816701 0.000000 
0.000000 0.749170 0.000000 
0.137163 0.758880 0.000000 
0.268496 0.844959 0.000000 
0.248577 0.922480 0.000000 
0.228657 1.000000 0.000000 
0.114329 1.000000 0.000000 
0.000000 1.000000 0.000000 
0.000000 0.942117 0.000000 
0.000000 0.884233 0.000000 
0.134248 0.864596 0.000000 
CELLS 64 576 
 8 0 1 2 3 4 5 6 7  
 8 8 9 10 11 12 13 14 15  
 8 16 17 18 19 20 21 22 23  
 8 24 25 26 27 28 29 30 31  
 8 32 33 34 35 36 37 38 39  
 8 40 41 42 43 44 45 46 47  
 8 48 49 50 51 52 53 54 55  
 8 56 57 58 59 60 61 62 63  
 8 64 65 66 67 68 69 70 71  
 8 72 73 74 75 76 77 78 79  
 8 80 81 82 83 84 85 86 87  
 8 88 89 90 91 92 93 94 95  
 8 96 97 98 99 100 101 102 103  
 8 104 105 106 107 108 109 110 111  
 8 112 113 114 115 116 117 118 119  
 8 120 121 122 123 124 125 126 127  
 8 128 129 130 131 132 133 134 135  
 8 136 137 138 139 140 141 142 143  
 8 144 145 146 147 148 149 150 151  
 8 152 153 154 155 156 157 158 159  
 8 160 161 162 163 164 165 166 167  
 8 168 169 170 171 172 173 174 175  
 8 176 177 178 179 180 181 182 183  
 8 184 185 186 187 188 189 190 191  
 8 192 193 194 195 196 197 198 199  
 8 200 201 202 203 204 205 206 207  
 8 208 209 210 211 212 213 214 215  
 8 216 217 218 219 220 221 222 223  
 8 224 225 226 227 228 229 230 231  
 8 232 233 234 235 236 237 238 239  
 8 240 241 242 243 244 245 246 247  
 8 248 249 250 251 252 253 254 255  
 8 256 257 258 259 260 261 262 263  
 8 264 265 266 267 268 269 270 271  
 8 272 273 274 275 276 277 278 279  
 8 280 281 282 283 284 285 286 287  
 8 288 289 290 291 292 293 294 295  
 8 296 297 298 299 300 301 302 303  
 8 304 305 306 307 308 309 310 311  
 8 312 313 314 315 316 317 318 319  
 8 320 321 322 323 324 325 326 327  
 8 328 329 330 331 332 333 334 335  
 8 336 337 338 339 340 341 342 343  
 8 344 345 346 347 348 349 350 351  
 8 352 353 354 355 356 357 358 359  
 8 360 361 362 363 364 365 366 367  
 8 368 369 370 371 372 373 374 375  
 8 376 377 378 379 380 381 382 383  
 8 384 385 386 387 388 389 390 391  
 8 392 393 394 395 396 397 398 399  
 8 400 401 402 403 404 405 406 407  
 8 408 409 410 411 412 413 414 415  
 8 416 417 418 419 420 421 422 423  
 8 424 425 426 427 428 429 430 431  
 8 432 433 434 435 436 437 438 439  
 8 440 441 442 443 444 445 446 447  
 8 448 449 450 451 452 453 454 455  
 8 456 457 458 459 460 461 462 463  
 8 464 465 466 467 468 469 470 471  
 8 472 473 474 475 476 477 478 479  
 8 480 481 482 483 484 485 486 487  
 8 488 489 490 491 492 493 494 495  
 8 496 497 498 499 500 501 502 503  
 8 504 505 506 507 508 509 510 511  
 
CELL_TYPES 64
7
7
7
7
7
7
7
7
7
7
7
7
7
7
7
7
7
7
7
7
7
7
7
7
7
7
7
7
7
7
7
7
7
7
7
7
7
7
7
7
7
7
7
7
7
7
7
7
7
7
7
7
7
7
7
7
7
7
7
7
7
7
7
7
CELL_DATA 64
FIELD FieldData 1
material 1 64 int
1
1
1
1
1
1
1
1
1
1
1
1
1
1
1
1
1
1
1
1
1
1
1
1
1
1
1
1
1
1
1
1
1
1
1
1
1
1
1
1
1
1
1
1
1
1
1
1
1
1
1
1
1
1
1
1
1
1
1
1
1
1
1
1
POINT_DATA 512 SCALARS flux_g1 double 
LOOKUP_TABLE   default 
1.88522579e+01
1.98740832e+01
2.10338048e+01
2.03186588e+01
1.96316477e+01
1.87204394e+01
1.79381682e+01
1.83836628e+01
2.10334198e+01
2.45851044e+01
2.91793304e+01
2.66937863e+01
2.44476252e+01
2.17865914e+01
1.96263532e+01
2.03066450e+01
2.91719867e+01
2.98992546e+01
3.06430365e+01
2.93992859e+01
2.82221184e+01
2.62082508e+01
2.44529610e+01
2.66909501e+01
3.06446138e+01
3.16779080e+01
3.27589922e+01
3.14231471e+01
3.01533889e+01
2.91556028e+01
2.82224199e+01
2.93977007e+01
3.27585528e+01
3.29384268e+01
3.31178040e+01
3.14784350e+01
2.99438187e+01
3.00456502e+01
3.01538226e+01
3.14229066e+01
3.31180871e+01
3.35517638e+01
3.39917484e+01
3.26531111e+01
3.14125663e+01
3.06554288e+01
2.99440674e+01
3.14779193e+01
3.39902830e+01
3.45884573e+01
3.52041402e+01
3.26655886e+01
3.04636723e+01
3.08905456e+01
3.14136770e+01
3.26535261e+01
3.52046223e+01
3.64248090e+01
3.76993933e+01
3.53363528e+01
3.31446826e+01
3.17765913e+01
3.04636693e+01
3.26643489e+01
1.79393678e+01
1.87192272e+01
1.96328469e+01
1.84407677e+01
1.73424135e+01
1.60671039e+01
1.49562358e+01
1.63758313e+01
1.96282602e+01
2.17828679e+01
2.44477613e+01
2.28791354e+01
2.14547506e+01
1.92178157e+01
1.73427964e+01
1.84382997e+01
2.44508247e+01
2.62162339e+01
2.82194277e+01
2.53883975e+01
2.29280080e+01
2.21708426e+01
2.14537686e+01
2.28841254e+01
2.82190015e+01
2.91569056e+01
3.01549501e+01
2.86600901e+01
2.72542805e+01
2.49062338e+01
2.29306603e+01
2.53849697e+01
3.01545304e+01
3.00445304e+01
2.99427393e+01
2.85689705e+01
2.73177111e+01
2.72319487e+01
2.72531497e+01
2.86630877e+01
2.99422040e+01
3.06557600e+01
3.14126639e+01
2.93071331e+01
2.74460662e+01
2.73667930e+01
2.73184288e+01
2.85693445e+01
3.14127782e+01
3.08863635e+01
3.04639208e+01
2.99186226e+01
2.93988710e+01
2.83939832e+01
2.74463617e+01
2.93067276e+01
3.04651776e+01
3.17760010e+01
3.31460113e+01
3.14903821e+01
2.99424417e+01
2.96661799e+01
2.93962196e+01
2.99185134e+01
1.49572239e+01
1.60721572e+01
1.73427860e+01
1.63884988e+01
1.55106204e+01
1.48327320e+01
1.42424408e+01
1.45908520e+01
1.73430279e+01
1.92200851e+01
2.14548420e+01
1.99743845e+01
1.86363987e+01
1.69349477e+01
1.55116663e+01
1.63904776e+01
2.14536207e+01
2.21715508e+01
2.29271418e+01
2.19435793e+01
2.10124468e+01
1.97798189e+01
1.86359761e+01
1.99758738e+01
2.29291493e+01
2.49074066e+01
2.72536957e+01
2.63341614e+01
2.54480974e+01
2.30419710e+01
2.10139617e+01
2.19437550e+01
2.72532353e+01
2.72324667e+01
2.73177414e+01
2.50593273e+01
2.30402307e+01
2.41951664e+01
2.54466652e+01
2.63339020e+01
2.73179915e+01
2.73660069e+01
2.74468818e+01
2.54909621e+01
2.37097061e+01
2.33526109e+01
2.30402752e+01
2.50589546e+01
2.74475722e+01
2.83953004e+01
2.93988378e+01
2.67453327e+01
2.43665429e+01
2.40104619e+01
2.37098678e+01
2.54907091e+01
2.93981182e+01
2.96661818e+01
2.99413452e+01
2.88033597e+01
2.77291595e+01
2.59672190e+01
2.43666151e+01
2.67454358e+01
1.42426969e+01
1.48314979e+01
1.55120616e+01
1.56965224e+01
1.59029506e+01
1.47985183e+01
1.38979742e+01
1.40666212e+01
1.55117009e+01
1.69345128e+01
1.86363022e+01
1.79763476e+01
1.73505530e+01
1.65836689e+01
1.59027775e+01
1.56954630e+01
1.86365028e+01
1.97804028e+01
2.10130962e+01
1.97991454e+01
1.87140671e+01
1.80031969e+01
1.73511318e+01
1.79762231e+01
2.10138573e+01
2.30427464e+01
2.54476511e+01
2.21347722e+01
1.93303488e+01
1.90139757e+01
1.87146592e+01
1.97980430e+01
2.54470155e+01
2.41939984e+01
2.30395336e+01
2.14018623e+01
1.99117387e+01
1.96116010e+01
1.93298710e+01
2.21342706e+01
2.30396780e+01
2.33529533e+01
2.37093415e+01
2.21885822e+01
2.07930088e+01
2.03341560e+01
1.99117785e+01
2.14018835e+01
2.37095859e+01
2.40098287e+01
2.43663329e+01
2.31532444e+01
2.20297914e+01
2.13831401e+01
2.07933816e+01
2.21882996e+01
2.43661955e+01
2.59686321e+01
2.77290937e+01
2.67080692e+01
2.57507816e+01
2.36992304e+01
2.20290767e+01
2.31528645e+01
1.38970802e+01
1.47905329e+01
1.59037043e+01
1.43589826e+01
1.30320416e+01
1.12422288e+01
9.76701502e+00
1.15962333e+01
1.59037924e+01
1.65827973e+01
1.73508572e+01
1.62841820e+01
1.53034907e+01
1.40698299e+01
1.30347172e+01
1.43596804e+01
1.73501545e+01
1.80016362e+01
1.87126554e+01
1.69897188e+01
1.56049449e+01
1.53163751e+01
1.53046877e+01
1.62840387e+01
1.87129236e+01
1.90154499e+01
1.93270023e+01
1.78276940e+01
1.65954479e+01
1.60897789e+01
1.56050208e+01
1.69894588e+01
1.93274193e+01
1.96101410e+01
1.99108995e+01
1.92645298e+01
1.87040403e+01
1.76065612e+01
1.65960486e+01
1.78268672e+01
1.99108578e+01
2.03340960e+01
2.07933583e+01
2.06751409e+01
2.05799254e+01
1.96125565e+01
1.87037581e+01
1.92643091e+01
2.07932878e+01
2.13832900e+01
2.20296910e+01
2.19220429e+01
2.18243293e+01
2.11829100e+01
2.05797518e+01
2.06751682e+01
2.20287556e+01
2.37001154e+01
2.57505817e+01
2.54739067e+01
2.52029400e+01
2.33636303e+01
2.18239026e+01
2.19213524e+01
9.76836768e+00
1.12305999e+01
1.30389172e+01
1.14106982e+01
1.01076579e+01
9.20634853e+00
8.44338289e+00
9.05374503e+00
1.30379534e+01
1.40676043e+01
1.53037528e+01
1.46036755e+01
1.39416411e+01
1.17867306e+01
1.01075561e+01
1.14116859e+01
1.53048912e+01
1.53175937e+01
1.56031521e+01
1.47737343e+01
1.40905499e+01
1.39925375e+01
1.39415186e+01
1.46033882e+01
1.56043738e+01
1.60908805e+01
1.65961978e+01
1.57222655e+01
1.49799060e+01
1.43555537e+01
1.40916138e+01
1.47729765e+01
1.65964489e+01
1.76065676e+01
1.87040612e+01
1.80755033e+01
1.75848090e+01
1.62135561e+01
1.49799031e+01
1.57234133e+01
1.87038049e+01
1.96126436e+01
2.05798831e+01
2.03671134e+01
2.02622629e+01
1.88628402e+01
1.75847504e+01
1.80758587e+01
2.05797546e+01
2.11828994e+01
2.18244531e+01
2.16083385e+01
2.15356790e+01
2.08735220e+01
2.02621505e+01
2.03664901e+01
2.18241505e+01
2.33625977e+01
2.52028752e+01
2.41751260e+01
2.32217202e+01
2.23442800e+01
2.15359069e+01
2.16088982e+01
8.44422982e+00
9.19732427e+00
1.01037324e+01
9.96055884e+00
9.85235409e+00
7.93501782e+00
6.67186230e+00
7.43266883e+00
1.01059013e+01
1.17860769e+01
1.39426154e+01
1.20106058e+01
1.06765331e+01
1.01957942e+01
9.85041158e+00
9.96120135e+00
1.39420521e+01
1.39922796e+01
1.40898998e+01
1.27915621e+01
1.19438104e+01
1.12594736e+01
1.06764936e+01
1.20104880e+01
1.40906355e+01
1.43558124e+01
1.49796021e+01
1.40862572e+01
1.33818001e+01
1.25908726e+01
1.19442196e+01
1.27900247e+01
1.49794313e+01
1.62141625e+01
1.75847857e+01
1.72074511e+01
1.68796965e+01
1.49780493e+01
1.33822746e+01
1.40861385e+01
1.75849038e+01
1.88624730e+01
2.02624596e+01
1.92641263e+01
1.83565865e+01
1.75973994e+01
1.68798212e+01
1.72071367e+01
2.02624109e+01
2.08735498e+01
2.15359422e+01
2.05628206e+01
1.96527708e+01
1.89878463e+01
1.83565931e+01
1.92639374e+01
2.15361074e+01
2.23434834e+01
2.32218215e+01
2.26234447e+01
2.20583908e+01
2.07962982e+01
1.96531748e+01
2.05628825e+01
6.67045054e+00
7.93225606e+00
9.85182508e+00
8.97232065e+00
8.49457134e+00
7.20105261e+00
6.29377569e+00
6.45319429e+00
9.85123804e+00
1.01958866e+01
1.06767930e+01
9.89696431e+00
9.32358345e+00
8.88681232e+00
8.49491915e+00
8.97457774e+00
1.06766135e+01
1.12579959e+01
1.19447789e+01
1.10984582e+01
1.04085075e+01
9.83944970e+00
9.32333501e+00
9.89720560e+00
1.19448034e+01
1.25915659e+01
1.33823489e+01
1.30890273e+01
1.28265233e+01
1.15297305e+01
1.04081539e+01
1.10958587e+01
1.33823917e+01
1.49767908e+01
1.68806577e+01
1.52886569e+01
1.40258962e+01
1.34071928e+01
1.28268711e+01
1.30920289e+01
1.68806148e+01
1.75980684e+01
1.83565333e+01
1.61899799e+01
1.45252896e+01
1.42716122e+01
1.40258235e+01
1.52893763e+01
1.83570300e+01
1.89862849e+01
1.96524201e+01
1.80106995e+01
1.67605603e+01
1.55898397e+01
1.45261875e+01
1.61874309e+01
1.96529883e+01
2.07932125e+01
2.20571453e+01
2.03199988e+01
1.88530315e+01
1.77704749e+01
1.67605485e+01
1.80110174e+01
 
