# vtk DataFile Version 3.0 
Date: 3/21/2016   Time: 14:1
ASCII 
DATASET UNSTRUCTURED_GRID 
 
POINTS 800 float 
0.000000 0.000000 0.000000 
0.050000 0.000000 0.000000 
0.100000 0.000000 0.000000 
0.100000 0.050000 0.000000 
0.100000 0.100000 0.000000 
0.050000 0.100000 0.000000 
0.000000 0.100000 0.000000 
0.000000 0.050000 0.000000 
0.100000 0.000000 0.000000 
0.150000 0.000000 0.000000 
0.200000 0.000000 0.000000 
0.200000 0.050000 0.000000 
0.200000 0.100000 0.000000 
0.150000 0.100000 0.000000 
0.100000 0.100000 0.000000 
0.100000 0.050000 0.000000 
0.200000 0.000000 0.000000 
0.250000 0.000000 0.000000 
0.300000 0.000000 0.000000 
0.300000 0.050000 0.000000 
0.300000 0.100000 0.000000 
0.250000 0.100000 0.000000 
0.200000 0.100000 0.000000 
0.200000 0.050000 0.000000 
0.300000 0.000000 0.000000 
0.350000 0.000000 0.000000 
0.400000 0.000000 0.000000 
0.400000 0.050000 0.000000 
0.400000 0.100000 0.000000 
0.350000 0.100000 0.000000 
0.300000 0.100000 0.000000 
0.300000 0.050000 0.000000 
0.400000 0.000000 0.000000 
0.450000 0.000000 0.000000 
0.500000 0.000000 0.000000 
0.500000 0.050000 0.000000 
0.500000 0.100000 0.000000 
0.450000 0.100000 0.000000 
0.400000 0.100000 0.000000 
0.400000 0.050000 0.000000 
0.500000 0.000000 0.000000 
0.550000 0.000000 0.000000 
0.600000 0.000000 0.000000 
0.600000 0.050000 0.000000 
0.600000 0.100000 0.000000 
0.550000 0.100000 0.000000 
0.500000 0.100000 0.000000 
0.500000 0.050000 0.000000 
0.600000 0.000000 0.000000 
0.650000 0.000000 0.000000 
0.700000 0.000000 0.000000 
0.700000 0.050000 0.000000 
0.700000 0.100000 0.000000 
0.650000 0.100000 0.000000 
0.600000 0.100000 0.000000 
0.600000 0.050000 0.000000 
0.700000 0.000000 0.000000 
0.750000 0.000000 0.000000 
0.800000 0.000000 0.000000 
0.800000 0.050000 0.000000 
0.800000 0.100000 0.000000 
0.750000 0.100000 0.000000 
0.700000 0.100000 0.000000 
0.700000 0.050000 0.000000 
0.800000 0.000000 0.000000 
0.850000 0.000000 0.000000 
0.900000 0.000000 0.000000 
0.900000 0.050000 0.000000 
0.900000 0.100000 0.000000 
0.850000 0.100000 0.000000 
0.800000 0.100000 0.000000 
0.800000 0.050000 0.000000 
0.900000 0.000000 0.000000 
0.950000 0.000000 0.000000 
1.000000 0.000000 0.000000 
1.000000 0.050000 0.000000 
1.000000 0.100000 0.000000 
0.950000 0.100000 0.000000 
0.900000 0.100000 0.000000 
0.900000 0.050000 0.000000 
0.000000 0.100000 0.000000 
0.050000 0.100000 0.000000 
0.100000 0.100000 0.000000 
0.100000 0.150000 0.000000 
0.100000 0.200000 0.000000 
0.050000 0.200000 0.000000 
0.000000 0.200000 0.000000 
0.000000 0.150000 0.000000 
0.100000 0.100000 0.000000 
0.150000 0.100000 0.000000 
0.200000 0.100000 0.000000 
0.200000 0.150000 0.000000 
0.200000 0.200000 0.000000 
0.150000 0.200000 0.000000 
0.100000 0.200000 0.000000 
0.100000 0.150000 0.000000 
0.200000 0.100000 0.000000 
0.250000 0.100000 0.000000 
0.300000 0.100000 0.000000 
0.300000 0.150000 0.000000 
0.300000 0.200000 0.000000 
0.250000 0.200000 0.000000 
0.200000 0.200000 0.000000 
0.200000 0.150000 0.000000 
0.300000 0.100000 0.000000 
0.350000 0.100000 0.000000 
0.400000 0.100000 0.000000 
0.400000 0.150000 0.000000 
0.400000 0.200000 0.000000 
0.350000 0.200000 0.000000 
0.300000 0.200000 0.000000 
0.300000 0.150000 0.000000 
0.400000 0.100000 0.000000 
0.450000 0.100000 0.000000 
0.500000 0.100000 0.000000 
0.500000 0.150000 0.000000 
0.500000 0.200000 0.000000 
0.450000 0.200000 0.000000 
0.400000 0.200000 0.000000 
0.400000 0.150000 0.000000 
0.500000 0.100000 0.000000 
0.550000 0.100000 0.000000 
0.600000 0.100000 0.000000 
0.600000 0.150000 0.000000 
0.600000 0.200000 0.000000 
0.550000 0.200000 0.000000 
0.500000 0.200000 0.000000 
0.500000 0.150000 0.000000 
0.600000 0.100000 0.000000 
0.650000 0.100000 0.000000 
0.700000 0.100000 0.000000 
0.700000 0.150000 0.000000 
0.700000 0.200000 0.000000 
0.650000 0.200000 0.000000 
0.600000 0.200000 0.000000 
0.600000 0.150000 0.000000 
0.700000 0.100000 0.000000 
0.750000 0.100000 0.000000 
0.800000 0.100000 0.000000 
0.800000 0.150000 0.000000 
0.800000 0.200000 0.000000 
0.750000 0.200000 0.000000 
0.700000 0.200000 0.000000 
0.700000 0.150000 0.000000 
0.800000 0.100000 0.000000 
0.850000 0.100000 0.000000 
0.900000 0.100000 0.000000 
0.900000 0.150000 0.000000 
0.900000 0.200000 0.000000 
0.850000 0.200000 0.000000 
0.800000 0.200000 0.000000 
0.800000 0.150000 0.000000 
0.900000 0.100000 0.000000 
0.950000 0.100000 0.000000 
1.000000 0.100000 0.000000 
1.000000 0.150000 0.000000 
1.000000 0.200000 0.000000 
0.950000 0.200000 0.000000 
0.900000 0.200000 0.000000 
0.900000 0.150000 0.000000 
0.000000 0.200000 0.000000 
0.050000 0.200000 0.000000 
0.100000 0.200000 0.000000 
0.100000 0.250000 0.000000 
0.100000 0.300000 0.000000 
0.050000 0.300000 0.000000 
0.000000 0.300000 0.000000 
0.000000 0.250000 0.000000 
0.100000 0.200000 0.000000 
0.150000 0.200000 0.000000 
0.200000 0.200000 0.000000 
0.200000 0.250000 0.000000 
0.200000 0.300000 0.000000 
0.150000 0.300000 0.000000 
0.100000 0.300000 0.000000 
0.100000 0.250000 0.000000 
0.200000 0.200000 0.000000 
0.250000 0.200000 0.000000 
0.300000 0.200000 0.000000 
0.300000 0.250000 0.000000 
0.300000 0.300000 0.000000 
0.250000 0.300000 0.000000 
0.200000 0.300000 0.000000 
0.200000 0.250000 0.000000 
0.300000 0.200000 0.000000 
0.350000 0.200000 0.000000 
0.400000 0.200000 0.000000 
0.400000 0.250000 0.000000 
0.400000 0.300000 0.000000 
0.350000 0.300000 0.000000 
0.300000 0.300000 0.000000 
0.300000 0.250000 0.000000 
0.400000 0.200000 0.000000 
0.450000 0.200000 0.000000 
0.500000 0.200000 0.000000 
0.500000 0.250000 0.000000 
0.500000 0.300000 0.000000 
0.450000 0.300000 0.000000 
0.400000 0.300000 0.000000 
0.400000 0.250000 0.000000 
0.500000 0.200000 0.000000 
0.550000 0.200000 0.000000 
0.600000 0.200000 0.000000 
0.600000 0.250000 0.000000 
0.600000 0.300000 0.000000 
0.550000 0.300000 0.000000 
0.500000 0.300000 0.000000 
0.500000 0.250000 0.000000 
0.600000 0.200000 0.000000 
0.650000 0.200000 0.000000 
0.700000 0.200000 0.000000 
0.700000 0.250000 0.000000 
0.700000 0.300000 0.000000 
0.650000 0.300000 0.000000 
0.600000 0.300000 0.000000 
0.600000 0.250000 0.000000 
0.700000 0.200000 0.000000 
0.750000 0.200000 0.000000 
0.800000 0.200000 0.000000 
0.800000 0.250000 0.000000 
0.800000 0.300000 0.000000 
0.750000 0.300000 0.000000 
0.700000 0.300000 0.000000 
0.700000 0.250000 0.000000 
0.800000 0.200000 0.000000 
0.850000 0.200000 0.000000 
0.900000 0.200000 0.000000 
0.900000 0.250000 0.000000 
0.900000 0.300000 0.000000 
0.850000 0.300000 0.000000 
0.800000 0.300000 0.000000 
0.800000 0.250000 0.000000 
0.900000 0.200000 0.000000 
0.950000 0.200000 0.000000 
1.000000 0.200000 0.000000 
1.000000 0.250000 0.000000 
1.000000 0.300000 0.000000 
0.950000 0.300000 0.000000 
0.900000 0.300000 0.000000 
0.900000 0.250000 0.000000 
0.000000 0.300000 0.000000 
0.050000 0.300000 0.000000 
0.100000 0.300000 0.000000 
0.100000 0.350000 0.000000 
0.100000 0.400000 0.000000 
0.050000 0.400000 0.000000 
0.000000 0.400000 0.000000 
0.000000 0.350000 0.000000 
0.100000 0.300000 0.000000 
0.150000 0.300000 0.000000 
0.200000 0.300000 0.000000 
0.200000 0.350000 0.000000 
0.200000 0.400000 0.000000 
0.150000 0.400000 0.000000 
0.100000 0.400000 0.000000 
0.100000 0.350000 0.000000 
0.200000 0.300000 0.000000 
0.250000 0.300000 0.000000 
0.300000 0.300000 0.000000 
0.300000 0.350000 0.000000 
0.300000 0.400000 0.000000 
0.250000 0.400000 0.000000 
0.200000 0.400000 0.000000 
0.200000 0.350000 0.000000 
0.300000 0.300000 0.000000 
0.350000 0.300000 0.000000 
0.400000 0.300000 0.000000 
0.400000 0.350000 0.000000 
0.400000 0.400000 0.000000 
0.350000 0.400000 0.000000 
0.300000 0.400000 0.000000 
0.300000 0.350000 0.000000 
0.400000 0.300000 0.000000 
0.450000 0.300000 0.000000 
0.500000 0.300000 0.000000 
0.500000 0.350000 0.000000 
0.500000 0.400000 0.000000 
0.450000 0.400000 0.000000 
0.400000 0.400000 0.000000 
0.400000 0.350000 0.000000 
0.500000 0.300000 0.000000 
0.550000 0.300000 0.000000 
0.600000 0.300000 0.000000 
0.600000 0.350000 0.000000 
0.600000 0.400000 0.000000 
0.550000 0.400000 0.000000 
0.500000 0.400000 0.000000 
0.500000 0.350000 0.000000 
0.600000 0.300000 0.000000 
0.650000 0.300000 0.000000 
0.700000 0.300000 0.000000 
0.700000 0.350000 0.000000 
0.700000 0.400000 0.000000 
0.650000 0.400000 0.000000 
0.600000 0.400000 0.000000 
0.600000 0.350000 0.000000 
0.700000 0.300000 0.000000 
0.750000 0.300000 0.000000 
0.800000 0.300000 0.000000 
0.800000 0.350000 0.000000 
0.800000 0.400000 0.000000 
0.750000 0.400000 0.000000 
0.700000 0.400000 0.000000 
0.700000 0.350000 0.000000 
0.800000 0.300000 0.000000 
0.850000 0.300000 0.000000 
0.900000 0.300000 0.000000 
0.900000 0.350000 0.000000 
0.900000 0.400000 0.000000 
0.850000 0.400000 0.000000 
0.800000 0.400000 0.000000 
0.800000 0.350000 0.000000 
0.900000 0.300000 0.000000 
0.950000 0.300000 0.000000 
1.000000 0.300000 0.000000 
1.000000 0.350000 0.000000 
1.000000 0.400000 0.000000 
0.950000 0.400000 0.000000 
0.900000 0.400000 0.000000 
0.900000 0.350000 0.000000 
0.000000 0.400000 0.000000 
0.050000 0.400000 0.000000 
0.100000 0.400000 0.000000 
0.100000 0.450000 0.000000 
0.100000 0.500000 0.000000 
0.050000 0.500000 0.000000 
0.000000 0.500000 0.000000 
0.000000 0.450000 0.000000 
0.100000 0.400000 0.000000 
0.150000 0.400000 0.000000 
0.200000 0.400000 0.000000 
0.200000 0.450000 0.000000 
0.200000 0.500000 0.000000 
0.150000 0.500000 0.000000 
0.100000 0.500000 0.000000 
0.100000 0.450000 0.000000 
0.200000 0.400000 0.000000 
0.250000 0.400000 0.000000 
0.300000 0.400000 0.000000 
0.300000 0.450000 0.000000 
0.300000 0.500000 0.000000 
0.250000 0.500000 0.000000 
0.200000 0.500000 0.000000 
0.200000 0.450000 0.000000 
0.300000 0.400000 0.000000 
0.350000 0.400000 0.000000 
0.400000 0.400000 0.000000 
0.400000 0.450000 0.000000 
0.400000 0.500000 0.000000 
0.350000 0.500000 0.000000 
0.300000 0.500000 0.000000 
0.300000 0.450000 0.000000 
0.400000 0.400000 0.000000 
[...]
CELL_DATA 100
FIELD FieldData 1
material 1 100 int
1
1
1
1
1
1
1
1
1
1
1
1
1
1
1
1
1
1
1
1
1
1
1
1
1
1
1
1
1
1
1
1
1
1
1
1
1
1
1
1
1
1
1
1
1
1
1
1
1
1
1
1
1
1
1
1
1
1
1
1
1
1
1
1
1
1
1
1
1
1
1
1
1
1
1
1
1
1
1
1
1
1
1
1
1
1
1
1
1
1
1
1
1
1
1
1
1
1
1
1
POINT_DATA 800 SCALARS flux_g1 double 
LOOKUP_TABLE   default 
6.28497172e+00
6.60375765e+00
6.97717776e+00
7.32235243e+00
7.73257751e+00
7.32235243e+00
6.97717776e+00
6.60375765e+00
6.97700538e+00
7.35806510e+00
7.79348684e+00
8.17100486e+00
8.61169346e+00
8.13945258e+00
7.73241892e+00
7.32272199e+00
7.79348603e+00
8.23754725e+00
8.73586743e+00
9.14483861e+00
9.61679645e+00
9.08157830e+00
8.61169372e+00
8.17100928e+00
8.73586145e+00
9.24279494e+00
9.80395425e+00
1.02443777e+01
1.07477055e+01
1.01495868e+01
9.61678755e+00
9.14485522e+00
9.80395421e+00
1.03737310e+01
1.09977467e+01
1.14695844e+01
1.20043392e+01
1.13433915e+01
1.07477076e+01
1.02443754e+01
1.09977467e+01
1.16303681e+01
1.23172283e+01
1.28204814e+01
1.33866454e+01
1.26628605e+01
1.20043392e+01
1.14695844e+01
1.23172284e+01
1.30127061e+01
1.37624097e+01
1.42970672e+01
1.48946632e+01
1.41079936e+01
1.33866433e+01
1.28204836e+01
1.37624157e+01
1.45207326e+01
1.53333084e+01
1.58993272e+01
1.65285072e+01
1.56789229e+01
1.48946721e+01
1.42970506e+01
1.53333092e+01
1.61545245e+01
1.70301019e+01
1.76271459e+01
1.82881702e+01
1.73757350e+01
1.65285070e+01
1.58993228e+01
1.70302742e+01
1.79134912e+01
1.88513423e+01
1.94842875e+01
2.01718669e+01
1.91975727e+01
1.82883288e+01
1.76267763e+01
6.97700538e+00
7.32272199e+00
7.73241892e+00
8.13945258e+00
8.61169346e+00
8.17100486e+00
7.79348684e+00
7.35806510e+00
7.73225473e+00
8.13973924e+00
8.61150420e+00
9.05092269e+00
9.55348229e+00
9.05092269e+00
8.61150420e+00
8.13973924e+00
8.61150813e+00
9.08194902e+00
9.61665473e+00
1.00876317e+01
1.06213912e+01
1.00558555e+01
9.55347807e+00
9.05089596e+00
9.61664123e+00
1.01499132e+01
1.07475389e+01
1.12499106e+01
1.18151754e+01
1.11867750e+01
1.06213796e+01
1.00876572e+01
1.07475428e+01
1.13436945e+01
1.20041662e+01
1.25379014e+01
1.31346408e+01
1.24433969e+01
1.18151797e+01
1.12499048e+01
1.20041662e+01
1.26631635e+01
1.33864806e+01
1.39516745e+01
1.45797812e+01
1.38256977e+01
1.31346408e+01
1.25379014e+01
1.33864768e+01
1.41083200e+01
1.48945169e+01
1.54911966e+01
1.61505827e+01
1.53336773e+01
1.45797770e+01
1.39516802e+01
1.48945304e+01
1.56792936e+01
1.65283216e+01
1.71562050e+01
1.78472827e+01
1.69673594e+01
1.61505943e+01
1.54911711e+01
1.65283177e+01
1.73760216e+01
1.82880060e+01
1.89468180e+01
1.96699103e+01
1.87270281e+01
1.78472869e+01
1.71562317e+01
1.82881702e+01
1.91979422e+01
2.01716945e+01
2.08669135e+01
2.16164945e+01
2.06117118e+01
1.96700996e+01
1.89465313e+01
7.79348603e+00
8.17100928e+00
8.61169372e+00
9.08157830e+00
9.61679645e+00
9.14483861e+00
8.73586743e+00
8.23754725e+00
8.61150813e+00
9.05089596e+00
9.55347807e+00
1.00558555e+01
1.06213912e+01
1.00876317e+01
9.61665473e+00
9.08194902e+00
9.55346106e+00
1.00559197e+01
1.06213673e+01
1.11554100e+01
1.17521712e+01
1.11554100e+01
1.06213673e+01
1.00559197e+01
1.06213627e+01
1.11867920e+01
1.18151606e+01
1.23805271e+01
1.30087620e+01
1.23490836e+01
1.17521689e+01
1.11554096e+01
1.18151644e+01
1.24434292e+01
1.31346225e+01
1.37313774e+01
1.43910643e+01
1.36685420e+01
1.30087644e+01
1.23805203e+01
1.31346225e+01
1.38257300e+01
1.45797659e+01
1.52079537e+01
1.58990296e+01
1.51136747e+01
1.43910643e+01
1.37313774e+01
1.45797621e+01
1.53336944e+01
1.61505657e+01
1.68102764e+01
1.75326994e+01
1.66844815e+01
1.58990272e+01
1.52079605e+01
1.61505704e+01
1.69674236e+01
1.78472657e+01
1.85382199e+01
1.92921630e+01
1.83810731e+01
1.75327017e+01
1.68102768e+01
1.78472827e+01
1.87270013e+01
1.96699143e+01
2.03916826e+01
2.11777157e+01
2.02035601e+01
1.92921870e+01
1.85381557e+01
1.96700999e+01
2.06117162e+01
2.16164937e+01
2.23747142e+01
2.31871936e+01
2.21510322e+01
2.11778574e+01
2.03913119e+01
8.73586145e+00
9.14485522e+00
9.61678755e+00
1.01495868e+01
1.07477055e+01
1.02443777e+01
9.80395425e+00
9.24279494e+00
9.61664123e+00
1.00876572e+01
1.06213796e+01
1.11867750e+01
1.18151754e+01
1.12499106e+01
1.07475389e+01
1.01499132e+01
1.06213627e+01
1.11554096e+01
1.17521689e+01
1.23490836e+01
1.30087620e+01
1.23805271e+01
1.18151606e+01
1.11867920e+01
1.17521621e+01
1.23490961e+01
1.30087535e+01
1.36370335e+01
1.43281566e+01
1.36370335e+01
1.30087535e+01
1.23490961e+01
1.30087573e+01
1.36685563e+01
1.43910603e+01
1.50507199e+01
1.57732608e+01
1.50192915e+01
1.43281620e+01
1.36370214e+01
1.43910603e+01
1.51136889e+01
1.58990225e+01
1.65901185e+01
1.73440909e+01
1.65272560e+01
1.57732608e+01
1.50507199e+01
1.58990188e+01
1.66844939e+01
1.75326925e+01
1.82552902e+01
1.90406114e+01
1.81609270e+01
1.73440856e+01
1.65901306e+01
1.75326994e+01
1.83810727e+01
1.92921584e+01
2.00460833e+01
2.08629474e+01
1.99203495e+01
1.90406199e+01
1.82552778e+01
1.92921754e+01
2.02035856e+01
2.11777022e+01
2.19623016e+01
2.28112547e+01
2.18056619e+01
2.08629623e+01
2.00460662e+01
2.11778485e+01
2.21510488e+01
2.31871877e+01
2.40082804e+01
2.48835990e+01
2.38160579e+01
2.28114213e+01
2.19619752e+01
9.80395421e+00
1.02443754e+01
1.07477076e+01
1.13433915e+01
1.20043392e+01
1.14695844e+01
1.09977467e+01
1.03737310e+01
1.07475428e+01
1.12499048e+01
1.18151797e+01
1.24433969e+01
1.31346408e+01
1.25379014e+01
1.20041662e+01
1.13436945e+01
1.18151644e+01
1.23805203e+01
1.30087644e+01
1.36685420e+01
1.43910643e+01
1.37313774e+01
1.31346225e+01
1.24434292e+01
1.30087573e+01
1.36370214e+01
1.43281620e+01
1.50192915e+01
1.57732608e+01
1.50507199e+01
1.43910603e+01
1.36685563e+01
1.43281670e+01
1.50192845e+01
1.57732645e+01
1.64957732e+01
1.72811987e+01
1.64957732e+01
1.57732645e+01
1.50192845e+01
1.57732645e+01
1.65272490e+01
1.73440960e+01
1.80980453e+01
1.89148571e+01
1.80665695e+01
1.72811987e+01
1.64957732e+01
1.73440909e+01
1.81609148e+01
1.90406152e+01
1.98260779e+01
2.06742457e+01
1.97631089e+01
1.89148534e+01
1.80980523e+01
1.90406222e+01
1.99203426e+01
2.08629512e+01
2.16797116e+01
2.25594004e+01
2.15853590e+01
2.06742496e+01
1.98260636e+01
2.08629665e+01
2.18056562e+01
2.28112585e+01
2.36587377e+01
2.45705368e+01
2.35334757e+01
2.25594187e+01
2.16796793e+01
2.28114234e+01
2.38160557e+01
2.48835989e+01
2.57675350e+01
2.67057099e+01
2.56067514e+01
2.45707098e+01
2.36584347e+01
1.09977467e+01
1.14695844e+01
1.20043392e+01
1.26628605e+01
1.33866454e+01
1.28204814e+01
1.23172283e+01
1.16303681e+01
1.20041662e+01
1.25379014e+01
1.31346408e+01
1.38256977e+01
1.45797812e+01
1.39516745e+01
1.33864806e+01
1.26631635e+01
1.31346225e+01
1.37313774e+01
1.43910643e+01
1.51136747e+01
1.58990296e+01
1.52079537e+01
1.45797659e+01
1.38257300e+01
1.43910603e+01
1.50507199e+01
1.57732608e+01
1.65272560e+01
1.73440909e+01
1.65901185e+01
1.58990225e+01
1.51136889e+01
1.57732645e+01
1.64957732e+01
1.72811987e+01
1.80665695e+01
1.89148571e+01
1.80980453e+01
1.73440960e+01
1.65272490e+01
1.72811987e+01
1.80665695e+01
1.89148571e+01
1.97316735e+01
2.06113523e+01
1.97316735e+01
1.89148571e+01
1.80665695e+01
1.89148534e+01
1.97631089e+01
2.06742457e+01
2.15225379e+01
2.24335352e+01
2.14910031e+01
2.06113473e+01
1.97316805e+01
2.06742496e+01
2.15853590e+01
2.25594004e+01
2.34390035e+01
2.43815350e+01
2.33760946e+01
2.24335423e+01
2.15225237e+01
2.25594187e+01
2.35334757e+01
2.45705368e+01
2.54808615e+01
2.64555060e+01
2.53870718e+01
2.43815503e+01
2.34389712e+01
2.45707098e+01
2.56067514e+01
2.67057099e+01
2.76524906e+01
2.86535101e+01
2.75231350e+01
2.64556709e+01
2.54805585e+01
1.23172284e+01
1.28204836e+01
1.33866433e+01
1.41079936e+01
1.48946632e+01
1.42970672e+01
1.37624097e+01
1.30127061e+01
1.33864768e+01
1.39516802e+01
1.45797770e+01
1.53336773e+01
1.61505827e+01
1.54911966e+01
1.48945169e+01
1.41083200e+01
1.45797621e+01
1.52079605e+01
1.58990272e+01
1.66844815e+01
1.75326994e+01
1.68102764e+01
1.61505657e+01
1.53336944e+01
1.58990188e+01
1.65901306e+01
1.73440856e+01
1.81609270e+01
1.90406114e+01
1.82552902e+01
1.75326925e+01
1.66844939e+01
1.73440909e+01
1.80980523e+01
1.89148534e+01
1.97631089e+01
2.06742457e+01
1.98260779e+01
1.90406152e+01
1.81609148e+01
1.89148534e+01
1.97316805e+01
2.06113473e+01
2.14910031e+01
2.24335352e+01
2.15225379e+01
2.06742457e+01
1.97631089e+01
2.06113419e+01
2.14910152e+01
2.24335315e+01
2.33446703e+01
2.43185327e+01
2.33446703e+01
2.24335315e+01
2.14910152e+01
2.24335399e+01
2.33761014e+01
2.43815312e+01
2.53239590e+01
2.63293259e+01
2.52925766e+01
2.43185395e+01
2.33446579e+01
2.43815461e+01
2.53870775e+01
2.64555022e+01
2.74286728e+01
2.84661972e+01
2.73664168e+01
2.63293429e+01
2.53239419e+01
2.64556688e+01
2.75231372e+01
2.86535102e+01
2.96631472e+01
3.07270100e+01
2.95652075e+01
2.84663435e+01
2.74283464e+01
1.37624157e+01
1.42970506e+01
1.48946721e+01
1.56789229e+01
1.65285072e+01
1.58993272e+01
1.53333084e+01
1.45207326e+01
1.48945304e+01
1.54911711e+01
1.61505943e+01
1.69673594e+01
1.78472827e+01
1.71562050e+01
1.65283216e+01
1.56792936e+01
1.61505704e+01
1.68102768e+01
1.75327017e+01
1.83810731e+01
1.92921630e+01
1.85382199e+01
1.78472657e+01
1.69674236e+01
1.75326994e+01
1.82552778e+01
1.90406199e+01
1.99203495e+01
2.08629474e+01
2.00460833e+01
1.92921584e+01
1.83810727e+01
1.90406222e+01
1.98260636e+01
2.06742496e+01
2.15853590e+01
2.25594004e+01
2.16797116e+01
2.08629512e+01
1.99203426e+01
2.06742496e+01
2.15225237e+01
2.24335423e+01
2.33760946e+01
2.43815350e+01
2.34390035e+01
2.25594004e+01
2.15853590e+01
2.24335399e+01
2.33446579e+01
2.43185395e+01
2.52925766e+01
2.63293259e+01
2.53239590e+01
2.43815312e+01
2.33761014e+01
2.43185419e+01
2.52925769e+01
2.63293305e+01
2.73346793e+01
2.84030170e+01
2.73346793e+01
2.63293305e+01
2.52925769e+01
2.63293545e+01
2.73663913e+01
2.84662107e+01
2.95023013e+01
3.06026567e+01
2.94712482e+01
2.84030340e+01
2.73346151e+01
2.84663524e+01
2.95651909e+01
3.07270160e+01
3.17994922e+01
3.29262273e+01
3.17329542e+01
3.06028423e+01
2.95019305e+01
1.53333092e+01
1.58993228e+01
1.65285070e+01
1.73757350e+01
1.82881702e+01
1.76271459e+01
1.70301019e+01
1.61545245e+01
1.65283177e+01
1.71562317e+01
1.78472869e+01
1.87270281e+01
1.96699103e+01
1.89468180e+01
1.82880060e+01
1.73760216e+01
1.78472827e+01
1.85381557e+01
1.92921870e+01
2.02035601e+01
2.11777157e+01
2.03916826e+01
1.96699143e+01
1.87270013e+01
1.92921754e+01
2.00460662e+01
2.08629623e+01
2.18056619e+01
2.28112547e+01
2.19623016e+01
2.11777022e+01
2.02035856e+01
2.08629665e+01
2.16796793e+01
2.25594187e+01
2.35334757e+01
2.45705368e+01
2.36587377e+01
2.28112585e+01
2.18056562e+01
2.25594187e+01
2.34389712e+01
2.43815503e+01
2.53870718e+01
2.64555060e+01
2.54808615e+01
2.45705368e+01
2.35334757e+01
2.43815461e+01
2.53239419e+01
2.63293429e+01
2.73664168e+01
2.84661972e+01
2.74286728e+01
2.64555022e+01
2.53870775e+01
2.63293545e+01
2.73346151e+01
2.84030340e+01
2.94712482e+01
3.06026567e+01
2.95023013e+01
2.84662107e+01
2.73663913e+01
2.84030382e+01
2.94712749e+01
3.06026528e+01
3.17016841e+01
3.28649960e+01
3.17016841e+01
3.06026528e+01
2.94712749e+01
3.06028420e+01
3.17329498e+01
3.29262281e+01
3.40616027e+01
3.52513393e+01
3.40262595e+01
3.28651601e+01
3.17013975e+01
1.70302742e+01
1.76267763e+01
1.82883288e+01
1.91975727e+01
2.01718669e+01
1.94842875e+01
1.88513423e+01
1.79134912e+01
1.82881702e+01
1.89465313e+01
1.96700996e+01
2.06117118e+01
2.16164945e+01
2.08669135e+01
2.01716945e+01
1.91979422e+01
1.96700999e+01
2.03913119e+01
2.11778574e+01
2.21510322e+01
2.31871936e+01
2.23747142e+01
2.16164937e+01
2.06117162e+01
2.11778485e+01
2.19619752e+01
2.28114213e+01
2.38160579e+01
2.48835990e+01
2.40082804e+01
2.31871877e+01
2.21510488e+01
2.28114234e+01
2.36584347e+01
2.45707098e+01
2.56067514e+01
2.67057099e+01
2.57675350e+01
2.48835989e+01
2.38160557e+01
2.45707098e+01
2.54805585e+01
2.64556709e+01
2.75231350e+01
2.86535101e+01
2.76524906e+01
2.67057099e+01
2.56067514e+01
2.64556688e+01
2.74283464e+01
2.84663435e+01
2.95652075e+01
3.07270100e+01
2.96631472e+01
2.86535102e+01
2.75231372e+01
2.84663524e+01
2.95019305e+01
3.06028423e+01
3.17329542e+01
3.29262273e+01
3.17994922e+01
3.07270160e+01
2.95651909e+01
3.06028420e+01
3.17013975e+01
3.28651601e+01
3.40262595e+01
3.52513393e+01
3.40616027e+01
3.29262281e+01
3.17329498e+01
3.28653187e+01
3.40258900e+01
3.52515116e+01
3.64488879e+01
3.77008983e+01
3.64488879e+01
3.52515116e+01
3.40258900e+01
 
