# vtk DataFile Version 3.0 
Date: 3/21/2016   Time: 14:1
ASCII 
DATASET UNSTRUCTURED_GRID 
 
POINTS 512 float 
1.000000 0.000000 0.000000 
1.000000 0.080221 0.000000 
1.000000 0.160441 0.000000 
0.966941 0.155668 0.000000 
0.933882 0.150896 0.000000 
0.942203 0.075448 0.000000 
0.950524 0.000000 0.000000 
0.975262 0.000000 0.000000 
1.000000 0.160441 0.000000 
1.000000 0.393069 0.000000 
1.000000 0.625698 0.000000 
0.967703 0.537498 0.000000 
0.935406 0.449299 0.000000 
0.934644 0.300098 0.000000 
0.933882 0.150896 0.000000 
0.966941 0.155668 0.000000 
1.000000 0.625698 0.000000 
1.000000 0.660959 0.000000 
1.000000 0.696219 0.000000 
0.969478 0.670855 0.000000 
0.938956 0.645490 0.000000 
0.937181 0.547395 0.000000 
0.935406 0.449299 0.000000 
0.967703 0.537498 0.000000 
1.000000 0.696219 0.000000 
1.000000 0.744380 0.000000 
1.000000 0.792541 0.000000 
0.970563 0.764327 0.000000 
0.941126 0.736113 0.000000 
0.940041 0.690802 0.000000 
0.938956 0.645490 0.000000 
0.969478 0.670855 0.000000 
1.000000 0.792541 0.000000 
1.000000 0.800485 0.000000 
1.000000 0.808429 0.000000 
0.953354 0.785374 0.000000 
0.906709 0.762320 0.000000 
0.923917 0.749216 0.000000 
0.941126 0.736113 0.000000 
0.970563 0.764327 0.000000 
1.000000 0.808429 0.000000 
1.000000 0.827440 0.000000 
1.000000 0.846451 0.000000 
0.939477 0.851819 0.000000 
0.878954 0.857187 0.000000 
0.892832 0.809754 0.000000 
0.906709 0.762320 0.000000 
0.953354 0.785374 0.000000 
1.000000 0.846451 0.000000 
1.000000 0.872240 0.000000 
1.000000 0.898030 0.000000 
0.867185 0.927217 0.000000 
0.734371 0.956404 0.000000 
0.806663 0.906796 0.000000 
0.878954 0.857187 0.000000 
0.939477 0.851819 0.000000 
1.000000 0.898030 0.000000 
1.000000 0.949015 0.000000 
1.000000 1.000000 0.000000 
0.904705 1.000000 0.000000 
0.809411 1.000000 0.000000 
0.771891 0.978202 0.000000 
0.734371 0.956404 0.000000 
0.867185 0.927217 0.000000 
0.950524 0.000000 0.000000 
0.942203 0.075448 0.000000 
0.933882 0.150896 0.000000 
0.878210 0.141512 0.000000 
0.822538 0.132127 0.000000 
0.799459 0.066063 0.000000 
0.776379 0.000000 0.000000 
0.863452 0.000000 0.000000 
0.933882 0.150896 0.000000 
0.934644 0.300098 0.000000 
0.935406 0.449299 0.000000 
0.912961 0.388005 0.000000 
0.890516 0.326711 0.000000 
0.856527 0.229419 0.000000 
0.822538 0.132127 0.000000 
0.878210 0.141512 0.000000 
0.935406 0.449299 0.000000 
0.937181 0.547395 0.000000 
0.938956 0.645490 0.000000 
0.912161 0.533697 0.000000 
0.885366 0.421905 0.000000 
0.887941 0.374308 0.000000 
0.890516 0.326711 0.000000 
0.912961 0.388005 0.000000 
0.938956 0.645490 0.000000 
0.940041 0.690802 0.000000 
0.941126 0.736113 0.000000 
0.906540 0.702964 0.000000 
0.871955 0.669816 0.000000 
0.878661 0.545860 0.000000 
0.885366 0.421905 0.000000 
0.912161 0.533697 0.000000 
0.941126 0.736113 0.000000 
0.923917 0.749216 0.000000 
0.906709 0.762320 0.000000 
0.826585 0.781956 0.000000 
0.746460 0.801591 0.000000 
0.809208 0.735704 0.000000 
0.871955 0.669816 0.000000 
0.906540 0.702964 0.000000 
0.906709 0.762320 0.000000 
0.892832 0.809754 0.000000 
0.878954 0.857187 0.000000 
0.777680 0.866170 0.000000 
0.676406 0.875152 0.000000 
0.711433 0.838372 0.000000 
0.746460 0.801591 0.000000 
0.826585 0.781956 0.000000 
0.878954 0.857187 0.000000 
0.806663 0.906796 0.000000 
0.734371 0.956404 0.000000 
0.700061 0.964942 0.000000 
0.665751 0.973479 0.000000 
0.671078 0.924316 0.000000 
0.676406 0.875152 0.000000 
0.777680 0.866170 0.000000 
0.734371 0.956404 0.000000 
0.771891 0.978202 0.000000 
0.809411 1.000000 0.000000 
0.736144 1.000000 0.000000 
0.662877 1.000000 0.000000 
0.664314 0.986739 0.000000 
0.665751 0.973479 0.000000 
0.700061 0.964942 0.000000 
0.776379 0.000000 0.000000 
0.799459 0.066063 0.000000 
0.822538 0.132127 0.000000 
0.771515 0.127270 0.000000 
0.720492 0.122413 0.000000 
0.725706 0.061206 0.000000 
0.730920 0.000000 0.000000 
0.753650 0.000000 0.000000 
0.822538 0.132127 0.000000 
0.856527 0.229419 0.000000 
0.890516 0.326711 0.000000 
0.817821 0.323481 0.000000 
0.745127 0.320251 0.000000 
0.732810 0.221332 0.000000 
0.720492 0.122413 0.000000 
0.771515 0.127270 0.000000 
0.890516 0.326711 0.000000 
0.887941 0.374308 0.000000 
0.885366 0.421905 0.000000 
0.852303 0.403485 0.000000 
0.819241 0.385065 0.000000 
0.782184 0.352658 0.000000 
0.745127 0.320251 0.000000 
0.817821 0.323481 0.000000 
0.885366 0.421905 0.000000 
0.878661 0.545860 0.000000 
0.871955 0.669816 0.000000 
0.849340 0.648140 0.000000 
0.826724 0.626464 0.000000 
0.822982 0.505764 0.000000 
0.819241 0.385065 0.000000 
0.852303 0.403485 0.000000 
0.871955 0.669816 0.000000 
0.809208 0.735704 0.000000 
0.746460 0.801591 0.000000 
0.721275 0.718855 0.000000 
0.696089 0.636119 0.000000 
0.761406 0.631292 0.000000 
0.826724 0.626464 0.000000 
0.849340 0.648140 0.000000 
0.746460 0.801591 0.000000 
0.711433 0.838372 0.000000 
0.676406 0.875152 0.000000 
0.655986 0.803413 0.000000 
0.635565 0.731674 0.000000 
0.665827 0.683897 0.000000 
0.696089 0.636119 0.000000 
0.721275 0.718855 0.000000 
0.676406 0.875152 0.000000 
0.671078 0.924316 0.000000 
0.665751 0.973479 0.000000 
0.613871 0.903801 0.000000 
0.561991 0.834122 0.000000 
0.598778 0.782898 0.000000 
0.635565 0.731674 0.000000 
0.655986 0.803413 0.000000 
0.665751 0.973479 0.000000 
0.664314 0.986739 0.000000 
0.662877 1.000000 0.000000 
0.608032 1.000000 0.000000 
0.553186 1.000000 0.000000 
0.557589 0.917061 0.000000 
0.561991 0.834122 0.000000 
0.613871 0.903801 0.000000 
0.730920 0.000000 0.000000 
0.725706 0.061206 0.000000 
0.720492 0.122413 0.000000 
0.703614 0.159185 0.000000 
0.686736 0.195956 0.000000 
0.697534 0.097978 0.000000 
0.708332 0.000000 0.000000 
0.719626 0.000000 0.000000 
0.720492 0.122413 0.000000 
0.732810 0.221332 0.000000 
0.745127 0.320251 0.000000 
0.709258 0.318657 0.000000 
0.673389 0.317063 0.000000 
0.680063 0.256510 0.000000 
0.686736 0.195956 0.000000 
0.703614 0.159185 0.000000 
0.745127 0.320251 0.000000 
0.782184 0.352658 0.000000 
0.819241 0.385065 0.000000 
0.740636 0.402588 0.000000 
0.662032 0.420111 0.000000 
0.667710 0.368587 0.000000 
0.673389 0.317063 0.000000 
0.709258 0.318657 0.000000 
0.819241 0.385065 0.000000 
0.822982 0.505764 0.000000 
0.826724 0.626464 0.000000 
0.741961 0.545222 0.000000 
0.657197 0.463981 0.000000 
0.659614 0.442046 0.000000 
0.662032 0.420111 0.000000 
0.740636 0.402588 0.000000 
0.826724 0.626464 0.000000 
0.761406 0.631292 0.000000 
0.696089 0.636119 0.000000 
0.664905 0.580151 0.000000 
0.633722 0.524183 0.000000 
0.645460 0.494082 0.000000 
0.657197 0.463981 0.000000 
0.741961 0.545222 0.000000 
0.696089 0.636119 0.000000 
0.665827 0.683897 0.000000 
0.635565 0.731674 0.000000 
0.618106 0.670338 0.000000 
0.600647 0.609002 0.000000 
0.617185 0.566593 0.000000 
0.633722 0.524183 0.000000 
0.664905 0.580151 0.000000 
0.635565 0.731674 0.000000 
0.598778 0.782898 0.000000 
0.561991 0.834122 0.000000 
0.560021 0.776180 0.000000 
0.558051 0.718238 0.000000 
0.579349 0.663620 0.000000 
0.600647 0.609002 0.000000 
0.618106 0.670338 0.000000 
0.561991 0.834122 0.000000 
0.557589 0.917061 0.000000 
0.553186 1.000000 0.000000 
0.500682 1.000000 0.000000 
0.448179 1.000000 0.000000 
0.503115 0.859119 0.000000 
0.558051 0.718238 0.000000 
0.560021 0.776180 0.000000 
0.708332 0.000000 0.000000 
0.697534 0.097978 0.000000 
0.686736 0.195956 0.000000 
0.635244 0.141595 0.000000 
0.583753 0.087234 0.000000 
0.489919 0.043617 0.000000 
0.396085 0.000000 0.000000 
0.552208 0.000000 0.000000 
0.686736 0.195956 0.000000 
0.680063 0.256510 0.000000 
0.673389 0.317063 0.000000 
0.637020 0.285565 0.000000 
0.600652 0.254066 0.000000 
0.592202 0.170650 0.000000 
0.583753 0.087234 0.000000 
0.635244 0.141595 0.000000 
0.673389 0.317063 0.000000 
0.667710 0.368587 0.000000 
0.662032 0.420111 0.000000 
0.536002 0.449243 0.000000 
0.409972 0.478375 0.000000 
0.505312 0.366221 0.000000 
0.600652 0.254066 0.000000 
0.637020 0.285565 0.000000 
0.662032 0.420111 0.000000 
0.659614 0.442046 0.000000 
0.657197 0.463981 0.000000 
0.544131 0.493538 0.000000 
0.431065 0.523096 0.000000 
0.420519 0.500736 0.000000 
0.409972 0.478375 0.000000 
0.536002 0.449243 0.000000 
0.657197 0.463981 0.000000 
0.645460 0.494082 0.000000 
0.633722 0.524183 0.000000 
0.568614 0.553847 0.000000 
0.503506 0.583511 0.000000 
0.467286 0.553303 0.000000 
0.431065 0.523096 0.000000 
0.544131 0.493538 0.000000 
0.633722 0.524183 0.000000 
0.617185 0.566593 0.000000 
0.600647 0.609002 0.000000 
0.568078 0.634856 0.000000 
0.535508 0.660709 0.000000 
0.519507 0.622110 0.000000 
0.503506 0.583511 0.000000 
0.568614 0.553847 0.000000 
0.600647 0.609002 0.000000 
0.579349 0.663620 0.000000 
0.558051 0.718238 0.000000 
0.535672 0.733755 0.000000 
0.513293 0.749272 0.000000 
0.524401 0.704991 0.000000 
0.535508 0.660709 0.000000 
0.568078 0.634856 0.000000 
0.558051 0.718238 0.000000 
0.503115 0.859119 0.000000 
0.448179 1.000000 0.000000 
0.432978 1.000000 0.000000 
0.417777 1.000000 0.000000 
0.465535 0.874636 0.000000 
0.513293 0.749272 0.000000 
0.535672 0.733755 0.000000 
0.396085 0.000000 0.000000 
0.489919 0.043617 0.000000 
0.583753 0.087234 0.000000 
0.475158 0.079908 0.000000 
0.366564 0.072582 0.000000 
0.318123 0.036291 0.000000 
0.269682 0.000000 0.000000 
0.332884 0.000000 0.000000 
0.583753 0.087234 0.000000 
0.592202 0.170650 0.000000 
0.600652 0.254066 0.000000 
0.574531 0.231443 0.000000 
0.548411 0.208820 0.000000 
0.457487 0.140701 0.000000 
0.366564 0.072582 0.000000 
0.475158 0.079908 0.000000 
0.600652 0.254066 0.000000 
0.505312 0.366221 0.000000 
0.409972 0.478375 0.000000 
0.442022 0.391361 0.000000 
0.474073 0.304346 0.000000 
0.511242 0.256583 0.000000 
0.548411 0.208820 0.000000 
0.574531 0.231443 0.000000 
0.409972 0.478375 0.000000 
0.420519 0.500736 0.000000 
0.431065 0.523096 0.000000 
0.351212 0.543971 0.000000 
0.271358 0.564846 0.000000 
0.372715 0.434596 0.000000 
0.474073 0.304346 0.000000 
0.442022 0.391361 0.000000 
0.431065 0.523096 0.000000 
0.467286 0.553303 0.000000 
0.503506 0.583511 0.000000 
0.417970 0.629020 0.000000 
0.332434 0.674528 0.000000 
0.301896 0.619687 0.000000 
0.271358 0.564846 0.000000 
0.351212 0.543971 0.000000 
0.503506 0.583511 0.000000 
0.519507 0.622110 0.000000 
0.535508 0.660709 0.000000 
0.462426 0.718721 0.000000 
0.389345 0.776733 0.000000 
0.360889 0.725631 0.000000 
0.332434 0.674528 0.000000 
0.417970 0.629020 0.000000 
0.535508 0.660709 0.000000 
0.524401 0.704991 0.000000 
0.513293 0.749272 0.000000 
0.431644 0.813226 0.000000 
0.349994 0.877179 0.000000 
0.369669 0.826956 0.000000 
0.389345 0.776733 0.000000 
0.462426 0.718721 0.000000 
0.513293 0.749272 0.000000 
0.465535 0.874636 0.000000 
0.417777 1.000000 0.000000 
0.359827 1.000000 0.000000 
0.301877 1.000000 0.000000 
0.325936 0.938589 0.000000 
0.349994 0.877179 0.000000 
0.431644 0.813226 0.000000 
0.269682 0.000000 0.000000 
0.318123 0.036291 0.000000 
0.366564 0.072582 0.000000 
0.329608 0.101886 0.000000 
0.292653 0.131190 0.000000 
0.174227 0.065595 0.000000 
0.055801 0.000000 0.000000 
0.162742 0.000000 0.000000 
0.366564 0.072582 0.000000 
0.457487 0.140701 0.000000 
0.548411 0.208820 0.000000 
0.375319 0.255339 0.000000 
0.202228 0.301858 0.000000 
0.247441 0.216524 0.000000 
0.292653 0.131190 0.000000 
0.329608 0.101886 0.000000 
0.548411 0.208820 0.000000 
0.511242 0.256583 0.000000 
0.474073 0.304346 0.000000 
0.319424 0.372571 0.000000 
0.164775 0.440795 0.000000 
0.183501 0.371327 0.000000 
0.202228 0.301858 0.000000 
0.375319 0.255339 0.000000 
0.474073 0.304346 0.000000 
0.372715 0.434596 0.000000 
0.271358 0.564846 0.000000 
0.175496 0.589905 0.000000 
0.079635 0.614965 0.000000 
0.122205 0.527880 0.000000 
0.164775 0.440795 0.000000 
0.319424 0.372571 0.000000 
0.271358 0.564846 0.000000 
0.301896 0.619687 0.000000 
0.332434 0.674528 0.000000 
0.279891 0.697925 0.000000 
0.227348 0.721323 0.000000 
0.153491 0.668144 0.000000 
0.079635 0.614965 0.000000 
0.175496 0.589905 0.000000 
0.332434 0.674528 0.000000 
0.360889 0.725631 0.000000 
0.389345 0.776733 0.000000 
0.331836 0.772662 0.000000 
0.274326 0.768590 0.000000 
0.250837 0.744957 0.000000 
0.227348 0.721323 0.000000 
0.279891 0.697925 0.000000 
0.389345 0.776733 0.000000 
0.369669 0.826956 0.000000 
0.349994 0.877179 0.000000 
0.309245 0.861069 0.000000 
0.268496 0.844959 0.000000 
0.271411 0.806774 0.000000 
0.274326 0.768590 0.000000 
0.331836 0.772662 0.000000 
0.349994 0.877179 0.000000 
0.325936 0.938589 0.000000 
0.301877 1.000000 0.000000 
0.265267 1.000000 0.000000 
0.228657 1.000000 0.000000 
0.248577 0.922480 0.000000 
0.268496 0.844959 0.000000 
0.309245 0.861069 0.000000 
0.055801 0.000000 0.000000 
0.174227 0.065595 0.000000 
0.292653 0.131190 0.000000 
0.146327 0.202942 0.000000 
0.000000 0.274694 0.000000 
0.000000 0.137347 0.000000 
0.000000 0.000000 0.000000 
0.027901 0.000000 0.000000 
0.292653 0.131190 0.000000 
0.247441 0.216524 0.000000 
0.202228 0.301858 0.000000 
0.101114 0.329033 0.000000 
0.000000 0.356208 0.000000 
0.000000 0.315451 0.000000 
0.000000 0.274694 0.000000 
0.146327 0.202942 0.000000 
0.202228 0.301858 0.000000 
0.183501 0.371327 0.000000 
0.164775 0.440795 0.000000 
0.082388 0.446195 0.000000 
0.000000 0.451596 0.000000 
0.000000 0.403902 0.000000 
0.000000 0.356208 0.000000 
0.101114 0.329033 0.000000 
0.164775 0.440795 0.000000 
0.122205 0.527880 0.000000 
0.079635 0.614965 0.000000 
0.039817 0.625374 0.000000 
0.000000 0.635783 0.000000 
0.000000 0.543689 0.000000 
0.000000 0.451596 0.000000 
0.082388 0.446195 0.000000 
0.079635 0.614965 0.000000 
0.153491 0.668144 0.000000 
0.227348 0.721323 0.000000 
0.113674 0.719144 0.000000 
0.000000 0.716965 0.000000 
0.000000 0.676374 0.000000 
0.000000 0.635783 0.000000 
0.039817 0.625374 0.000000 
0.227348 0.721323 0.000000 
0.250837 0.744957 0.000000 
0.274326 0.768590 0.000000 
0.137163 0.758880 0.000000 
0.000000 0.749170 0.000000 
0.000000 0.733067 0.000000 
0.000000 0.716965 0.000000 
0.113674 0.719144 0.000000 
0.274326 0.768590 0.000000 
0.271411 0.806774 0.000000 
0.268496 0.844959 0.000000 
0.134248 0.864596 0.000000 
0.000000 0.884233 0.000000 
0.000000 0.816701 0.000000 
0.000000 0.749170 0.000000 
0.137163 0.758880 0.000000 
0.268496 0.844959 0.000000 
0.248577 0.922480 0.000000 
0.228657 1.000000 0.000000 
0.114329 1.000000 0.000000 
0.000000 1.000000 0.000000 
0.000000 0.942117 0.000000 
0.000000 0.884233 0.000000 
0.134248 0.864596 0.000000 
CELLS 64 576 
 8 0 1 2 3 4 5 6 7  
 8 8 9 10 11 12 13 14 15  
 8 16 17 18 19 20 21 22 23  
 8 24 25 26 27 28 29 30 31  
 8 32 33 34 35 36 37 38 39  
 8 40 41 42 43 44 45 46 47  
 8 48 49 50 51 52 53 54 55  
 8 56 57 58 59 60 61 62 63  
 8 64 65 66 67 68 69 70 71  
 8 72 73 74 75 76 77 78 79  
 8 80 81 82 83 84 85 86 87  
 8 88 89 90 91 92 93 94 95  
 8 96 97 98 99 100 101 102 103  
 8 104 105 106 107 108 109 110 111  
 8 112 113 114 115 116 117 118 119  
 8 120 121 122 123 124 125 126 127  
 8 128 129 130 131 132 133 134 135  
 8 136 137 138 139 140 141 142 143  
 8 144 145 146 147 148 149 150 151  
 8 152 153 154 155 156 157 158 159  
 8 160 161 162 163 164 165 166 167  
 8 168 169 170 171 172 173 174 175  
 8 176 177 178 179 180 181 182 183  
 8 184 185 186 187 188 189 190 191  
 8 192 193 194 195 196 197 198 199  
 8 200 201 202 203 204 205 206 207  
 8 208 209 210 211 212 213 214 215  
 8 216 217 218 219 220 221 222 223  
 8 224 225 226 227 228 229 230 231  
 8 232 233 234 235 236 237 238 239  
 8 240 241 242 243 244 245 246 247  
 8 248 249 250 251 252 253 254 255  
 8 256 257 258 259 260 261 262 263  
 8 264 265 266 267 268 269 270 271  
 8 272 273 274 275 276 277 278 279  
 8 280 281 282 283 284 285 286 287  
 8 288 289 290 291 292 293 294 295  
 8 296 297 298 299 300 301 302 303  
 8 304 305 306 307 308 309 310 311  
 8 312 313 314 315 316 317 318 319  
 8 320 321 322 323 324 325 326 327  
 8 328 329 330 331 332 333 334 335  
 8 336 337 338 339 340 341 342 343  
 8 344 345 346 347 348 349 350 351  
 8 352 353 354 355 356 357 358 359  
 8 360 361 362 363 364 365 366 367  
 8 368 369 370 371 372 373 374 375  
 8 376 377 378 379 380 381 382 383  
 8 384 385 386 387 388 389 390 391  
 8 392 393 394 395 396 397 398 399  
 8 400 401 402 403 404 405 406 407  
 8 408 409 410 411 412 413 414 415  
 8 416 417 418 419 420 421 422 423  
 8 424 425 426 427 428 429 430 431  
 8 432 433 434 435 436 437 438 439  
 8 440 441 442 443 444 445 446 447  
 8 448 449 450 451 452 453 454 455  
 8 456 457 458 459 460 461 462 463  
 8 464 465 466 467 468 469 470 471  
 8 472 473 474 475 476 477 478 479  
 8 480 481 482 483 484 485 486 487  
 8 488 489 490 491 492 493 494 495  
 8 496 497 498 499 500 501 502 503  
 8 504 505 506 507 508 509 510 511  
 
CELL_TYPES 64
7
7
7
7
7
7
7
7
7
7
7
7
7
7
7
7
7
7
7
7
7
7
7
7
7
7
7
7
7
7
7
7
7
7
7
7
7
7
7
7
7
7
7
7
7
7
7
7
7
7
7
7
7
7
7
7
7
7
7
7
7
7
7
7
CELL_DATA 64
FIELD FieldData 1
material 1 64 int
1
1
1
1
1
1
1
1
1
1
1
1
1
1
1
1
1
1
1
1
1
1
1
1
1
1
1
1
1
1
1
1
1
1
1
1
1
1
1
1
1
1
1
1
1
1
1
1
1
1
1
1
1
1
1
1
1
1
1
1
1
1
1
1
POINT_DATA 512 SCALARS flux_g1 double 
LOOKUP_TABLE   default 
1.88525902e+01
1.98775104e+01
2.10331999e+01
2.03190237e+01
1.96319307e+01
1.87199671e+01
1.79384562e+01
1.83821417e+01
2.10314380e+01
2.45953967e+01
2.91802246e+01
2.66926108e+01
2.44464695e+01
2.17923299e+01
1.96226240e+01
2.03056533e+01
2.91792627e+01
2.98834233e+01
3.06456630e+01
2.94015448e+01
2.82204893e+01
2.62108690e+01
2.44503564e+01
2.66942297e+01
3.06451567e+01
3.16788243e+01
3.27599408e+01
3.14217449e+01
3.01539198e+01
2.91573900e+01
2.82209226e+01
2.93998357e+01
3.27597238e+01
3.29380861e+01
3.31182660e+01
3.14793661e+01
2.99433163e+01
3.00461943e+01
3.01539546e+01
3.14216738e+01
3.31183252e+01
3.35502774e+01
3.39917494e+01
3.26544997e+01
3.14117066e+01
3.06552549e+01
2.99434645e+01
3.14791083e+01
3.39895622e+01
3.45903090e+01
3.52042783e+01
3.26657996e+01
3.04638577e+01
3.08906637e+01
3.14118534e+01
3.26563756e+01
3.52045577e+01
3.64229630e+01
3.77023508e+01
3.53349474e+01
3.31466735e+01
3.17674750e+01
3.04646793e+01
3.26643662e+01
1.79385532e+01
1.87196114e+01
1.96323641e+01
1.84414029e+01
1.73419529e+01
1.60681547e+01
1.49560204e+01
1.63786049e+01
1.96250239e+01
2.17880452e+01
2.44491370e+01
2.28776470e+01
2.14553667e+01
1.92201808e+01
1.73418087e+01
1.84386016e+01
2.44504062e+01
2.62138210e+01
2.82191471e+01
2.53871415e+01
2.29292015e+01
2.21715332e+01
2.14533382e+01
2.28851415e+01
2.82201114e+01
2.91534273e+01
3.01537841e+01
2.86618780e+01
2.72548348e+01
2.49060526e+01
2.29312142e+01
2.53864735e+01
3.01529949e+01
3.00442816e+01
2.99417254e+01
2.85700812e+01
2.73174358e+01
2.72326615e+01
2.72540781e+01
2.86637361e+01
2.99423037e+01
3.06540324e+01
3.14117497e+01
2.93083404e+01
2.74462287e+01
2.73656677e+01
2.73181792e+01
2.85700401e+01
3.14118616e+01
3.08863592e+01
3.04640688e+01
2.99199398e+01
2.93997854e+01
2.83942717e+01
2.74465104e+01
2.93081638e+01
3.04653055e+01
3.17765441e+01
3.31452186e+01
3.14921251e+01
2.99425960e+01
2.96675164e+01
2.93986688e+01
2.99195546e+01
1.49576572e+01
1.60713111e+01
1.73430312e+01
1.63890567e+01
1.55102030e+01
1.48336922e+01
1.42420392e+01
1.45923423e+01
1.73424439e+01
1.92200164e+01
2.14547351e+01
1.99738985e+01
1.86365501e+01
1.69346273e+01
1.55108453e+01
1.63909320e+01
2.14535822e+01
2.21695654e+01
2.29295258e+01
2.19434002e+01
2.10130043e+01
1.97789669e+01
1.86366280e+01
1.99741935e+01
2.29308997e+01
2.49056731e+01
2.72551094e+01
2.63334988e+01
2.54487982e+01
2.30423042e+01
2.10143171e+01
2.19448869e+01
2.72540282e+01
2.72328328e+01
2.73178007e+01
2.50592834e+01
2.30399076e+01
2.41948618e+01
2.54475290e+01
2.63319535e+01
2.73178388e+01
2.73660678e+01
2.74470586e+01
2.54906784e+01
2.37099450e+01
2.33522264e+01
2.30400843e+01
2.50592219e+01
2.74471818e+01
2.83961697e+01
2.93992895e+01
2.67447636e+01
2.43664146e+01
2.40108323e+01
2.37097257e+01
2.54908365e+01
2.93991123e+01
2.96670364e+01
2.99427051e+01
2.88041326e+01
2.77289226e+01
2.59672998e+01
2.43665115e+01
2.67454025e+01
1.42420568e+01
1.48329675e+01
1.55107684e+01
1.56971895e+01
1.59020912e+01
1.47992323e+01
1.38979887e+01
1.40676779e+01
1.55112592e+01
1.69346235e+01
1.86364779e+01
1.79764711e+01
1.73506545e+01
1.65838093e+01
1.59018952e+01
1.56951457e+01
1.86365527e+01
1.97794813e+01
2.10132478e+01
1.97988051e+01
1.87139518e+01
1.80041482e+01
1.73510843e+01
1.79767453e+01
2.10139530e+01
2.30428682e+01
2.54483284e+01
2.21348255e+01
1.93302315e+01
1.90172059e+01
1.87144180e+01
1.97977761e+01
2.54476201e+01
2.41942391e+01
2.30393539e+01
2.14026178e+01
1.99120094e+01
1.96120589e+01
1.93299370e+01
2.21339698e+01
2.30395793e+01
2.33526922e+01
2.37095026e+01
2.21882954e+01
2.07933390e+01
2.03351762e+01
1.99118585e+01
2.14023840e+01
2.37095199e+01
2.40095140e+01
2.43662888e+01
2.31536110e+01
2.20296344e+01
2.13829994e+01
2.07937126e+01
2.21888042e+01
2.43671250e+01
2.59679094e+01
2.77291501e+01
2.67087108e+01
2.57502302e+01
2.36998824e+01
2.20291551e+01
2.31527591e+01
1.38971967e+01
1.47904368e+01
1.59020811e+01
1.43574142e+01
1.30367759e+01
1.12274074e+01
9.77240730e+00
1.15970780e+01
1.59025458e+01
1.65830426e+01
1.73502852e+01
1.62840294e+01
1.53037344e+01
1.40686019e+01
1.30369921e+01
1.43585962e+01
1.73511232e+01
1.80029262e+01
1.87127164e+01
1.69886103e+01
1.56043612e+01
1.53161962e+01
1.53046829e+01
1.62825334e+01
1.87132868e+01
1.90156093e+01
1.93286534e+01
1.78265970e+01
1.65948693e+01
1.60890402e+01
1.56047918e+01
1.69883770e+01
1.93286262e+01
1.96107866e+01
1.99111742e+01
1.92652595e+01
1.87042321e+01
1.76071099e+01
1.65950742e+01
1.78268058e+01
1.99112425e+01
2.03349464e+01
2.07935613e+01
2.06750698e+01
2.05797485e+01
1.96126693e+01
1.87039393e+01
1.92649862e+01
2.07936505e+01
2.13833357e+01
2.20294399e+01
2.19217466e+01
2.18242344e+01
2.11824302e+01
2.05796686e+01
2.06750754e+01
2.20286987e+01
2.37003174e+01
2.57502865e+01
2.54735012e+01
2.52027349e+01
2.33638049e+01
2.18239294e+01
2.19214193e+01
9.77022288e+00
1.12314059e+01
1.30394277e+01
1.14109670e+01
1.01061749e+01
9.20554004e+00
8.44576175e+00
9.05301504e+00
1.30393954e+01
1.40675628e+01
1.53033839e+01
1.46002462e+01
1.39422886e+01
1.17860280e+01
1.01063577e+01
1.14118297e+01
1.53040229e+01
1.53165600e+01
1.56034053e+01
1.47735566e+01
1.40915424e+01
1.39949070e+01
1.39428572e+01
1.46014059e+01
1.56042866e+01
1.60897222e+01
1.65956282e+01
1.57220390e+01
1.49797299e+01
1.43551788e+01
1.40919194e+01
1.47728221e+01
1.65954429e+01
1.76073083e+01
1.87040694e+01
1.80754374e+01
1.75846743e+01
1.62133130e+01
1.49794511e+01
1.57231121e+01
1.87037787e+01
1.96125803e+01
2.05797842e+01
2.03661637e+01
2.02623670e+01
1.88630469e+01
1.75848963e+01
1.80759529e+01
2.05798227e+01
2.11821165e+01
2.18244058e+01
2.16086765e+01
2.15354811e+01
2.08732968e+01
2.02622752e+01
2.03659369e+01
2.18241710e+01
2.33629448e+01
2.52025351e+01
2.41749491e+01
2.32224888e+01
2.23432371e+01
2.15358165e+01
2.16082727e+01
8.44455953e+00
9.19763292e+00
1.01060837e+01
9.96021098e+00
9.85020061e+00
7.93827106e+00
6.66996020e+00
7.44004293e+00
1.01051443e+01
1.17869399e+01
1.39432450e+01
1.20103362e+01
1.06758699e+01
1.01974137e+01
9.85053310e+00
9.96086654e+00
1.39430319e+01
1.39944590e+01
1.40913358e+01
1.27910313e+01
1.19438788e+01
1.12589611e+01
1.06759792e+01
1.20105010e+01
1.40914391e+01
1.43556832e+01
1.49794124e+01
1.40865751e+01
1.33819385e+01
1.25909336e+01
1.19440168e+01
1.27912313e+01
1.49790636e+01
1.62134307e+01
1.75853009e+01
1.72075145e+01
1.68797328e+01
1.49774591e+01
1.33824045e+01
1.40864604e+01
1.75852551e+01
1.88631643e+01
2.02621061e+01
1.92644456e+01
1.83564351e+01
1.75977053e+01
1.68796580e+01
1.72077222e+01
2.02622928e+01
2.08737025e+01
2.15358016e+01
2.05622370e+01
1.96531013e+01
1.89871227e+01
1.83568897e+01
1.92641595e+01
2.15357355e+01
2.23434065e+01
2.32221117e+01
2.26240049e+01
2.20589793e+01
2.07958231e+01
1.96532919e+01
2.05625424e+01
6.67007525e+00
7.94034905e+00
9.85002644e+00
8.97391529e+00
8.49383888e+00
7.20606871e+00
6.29437963e+00
6.45925171e+00
9.85004311e+00
1.01966906e+01
1.06759126e+01
9.89700164e+00
9.32414079e+00
8.88675437e+00
8.49474433e+00
8.97600387e+00
1.06760681e+01
1.12587059e+01
1.19446307e+01
1.10984092e+01
1.04089107e+01
9.83888768e+00
9.32381197e+00
9.89715869e+00
1.19444834e+01
1.25913411e+01
1.33831275e+01
1.30861242e+01
1.28284628e+01
1.15315680e+01
1.04083799e+01
1.10965228e+01
1.33824226e+01
1.49766210e+01
1.68803903e+01
1.52884901e+01
1.40260701e+01
1.34066101e+01
1.28277404e+01
1.30892565e+01
1.68802230e+01
1.75980355e+01
1.83564015e+01
1.61898418e+01
1.45252915e+01
1.42721767e+01
1.40259717e+01
1.52890862e+01
1.83571241e+01
1.89858961e+01
1.96533683e+01
1.80105486e+01
1.67605488e+01
1.55913060e+01
1.45253339e+01
1.61880257e+01
1.96534886e+01
2.07897881e+01
2.20594109e+01
2.03229455e+01
1.88564779e+01
1.77643277e+01
1.67613058e+01
1.80102296e+01
 
