# vtk DataFile Version 3.0 
Date: 3/21/2016   Time: 14:1
ASCII 
DATASET UNSTRUCTURED_GRID 
 
POINTS 512 float 
1.000000 0.000000 0.000000 
1.000000 0.080221 0.000000 
1.000000 0.160441 0.000000 
0.966941 0.155668 0.000000 
0.933882 0.150896 0.000000 
0.942203 0.075448 0.000000 
0.950524 0.000000 0.000000 
0.975262 0.000000 0.000000 
1.000000 0.160441 0.000000 
1.000000 0.393069 0.000000 
1.000000 0.625698 0.000000 
0.967703 0.537498 0.000000 
0.935406 0.449299 0.000000 
0.934644 0.300098 0.000000 
0.933882 0.150896 0.000000 
0.966941 0.155668 0.000000 
1.000000 0.625698 0.000000 
1.000000 0.660959 0.000000 
1.000000 0.696219 0.000000 
0.969478 0.670855 0.000000 
0.938956 0.645490 0.000000 
0.937181 0.547395 0.000000 
0.935406 0.449299 0.000000 
0.967703 0.537498 0.000000 
1.000000 0.696219 0.000000 
1.000000 0.744380 0.000000 
1.000000 0.792541 0.000000 
0.970563 0.764327 0.000000 
0.941126 0.736113 0.000000 
0.940041 0.690802 0.000000 
0.938956 0.645490 0.000000 
0.969478 0.670855 0.000000 
1.000000 0.792541 0.000000 
1.000000 0.800485 0.000000 
1.000000 0.808429 0.000000 
0.953354 0.785374 0.000000 
0.906709 0.762320 0.000000 
0.923917 0.749216 0.000000 
0.941126 0.736113 0.000000 
0.970563 0.764327 0.000000 
1.000000 0.808429 0.000000 
1.000000 0.827440 0.000000 
1.000000 0.846451 0.000000 
0.939477 0.851819 0.000000 
0.878954 0.857187 0.000000 
0.892832 0.809754 0.000000 
0.906709 0.762320 0.000000 
0.953354 0.785374 0.000000 
1.000000 0.846451 0.000000 
1.000000 0.872240 0.000000 
1.000000 0.898030 0.000000 
0.867185 0.927217 0.000000 
0.734371 0.956404 0.000000 
0.806663 0.906796 0.000000 
0.878954 0.857187 0.000000 
0.939477 0.851819 0.000000 
1.000000 0.898030 0.000000 
1.000000 0.949015 0.000000 
1.000000 1.000000 0.000000 
0.904705 1.000000 0.000000 
0.809411 1.000000 0.000000 
0.771891 0.978202 0.000000 
0.734371 0.956404 0.000000 
0.867185 0.927217 0.000000 
0.950524 0.000000 0.000000 
0.942203 0.075448 0.000000 
0.933882 0.150896 0.000000 
0.878210 0.141512 0.000000 
0.822538 0.132127 0.000000 
0.799459 0.066063 0.000000 
0.776379 0.000000 0.000000 
0.863452 0.000000 0.000000 
0.933882 0.150896 0.000000 
0.934644 0.300098 0.000000 
0.935406 0.449299 0.000000 
0.912961 0.388005 0.000000 
0.890516 0.326711 0.000000 
0.856527 0.229419 0.000000 
0.822538 0.132127 0.000000 
0.878210 0.141512 0.000000 
0.935406 0.449299 0.000000 
0.937181 0.547395 0.000000 
0.938956 0.645490 0.000000 
0.912161 0.533697 0.000000 
0.885366 0.421905 0.000000 
0.887941 0.374308 0.000000 
0.890516 0.326711 0.000000 
0.912961 0.388005 0.000000 
0.938956 0.645490 0.000000 
0.940041 0.690802 0.000000 
0.941126 0.736113 0.000000 
0.906540 0.702964 0.000000 
0.871955 0.669816 0.000000 
0.878661 0.545860 0.000000 
0.885366 0.421905 0.000000 
0.912161 0.533697 0.000000 
0.941126 0.736113 0.000000 
0.923917 0.749216 0.000000 
0.906709 0.762320 0.000000 
0.826585 0.781956 0.000000 
0.746460 0.801591 0.000000 
0.809208 0.735704 0.000000 
0.871955 0.669816 0.000000 
0.906540 0.702964 0.000000 
0.906709 0.762320 0.000000 
0.892832 0.809754 0.000000 
0.878954 0.857187 0.000000 
0.777680 0.866170 0.000000 
0.676406 0.875152 0.000000 
0.711433 0.838372 0.000000 
0.746460 0.801591 0.000000 
0.826585 0.781956 0.000000 
0.878954 0.857187 0.000000 
0.806663 0.906796 0.000000 
0.734371 0.956404 0.000000 
0.700061 0.964942 0.000000 
0.665751 0.973479 0.000000 
0.671078 0.924316 0.000000 
0.676406 0.875152 0.000000 
0.777680 0.866170 0.000000 
0.734371 0.956404 0.000000 
0.771891 0.978202 0.000000 
0.809411 1.000000 0.000000 
0.736144 1.000000 0.000000 
0.662877 1.000000 0.000000 
0.664314 0.986739 0.000000 
0.665751 0.973479 0.000000 
0.700061 0.964942 0.000000 
0.776379 0.000000 0.000000 
0.799459 0.066063 0.000000 
0.822538 0.132127 0.000000 
0.771515 0.127270 0.000000 
0.720492 0.122413 0.000000 
0.725706 0.061206 0.000000 
0.730920 0.000000 0.000000 
0.753650 0.000000 0.000000 
0.822538 0.132127 0.000000 
0.856527 0.229419 0.000000 
0.890516 0.326711 0.000000 
0.817821 0.323481 0.000000 
0.745127 0.320251 0.000000 
0.732810 0.221332 0.000000 
0.720492 0.122413 0.000000 
0.771515 0.127270 0.000000 
0.890516 0.326711 0.000000 
0.887941 0.374308 0.000000 
0.885366 0.421905 0.000000 
0.852303 0.403485 0.000000 
0.819241 0.385065 0.000000 
0.782184 0.352658 0.000000 
0.745127 0.320251 0.000000 
0.817821 0.323481 0.000000 
0.885366 0.421905 0.000000 
0.878661 0.545860 0.000000 
0.871955 0.669816 0.000000 
0.849340 0.648140 0.000000 
0.826724 0.626464 0.000000 
0.822982 0.505764 0.000000 
0.819241 0.385065 0.000000 
0.852303 0.403485 0.000000 
0.871955 0.669816 0.000000 
0.809208 0.735704 0.000000 
0.746460 0.801591 0.000000 
0.721275 0.718855 0.000000 
0.696089 0.636119 0.000000 
0.761406 0.631292 0.000000 
0.826724 0.626464 0.000000 
0.849340 0.648140 0.000000 
0.746460 0.801591 0.000000 
0.711433 0.838372 0.000000 
0.676406 0.875152 0.000000 
0.655986 0.803413 0.000000 
0.635565 0.731674 0.000000 
0.665827 0.683897 0.000000 
0.696089 0.636119 0.000000 
0.721275 0.718855 0.000000 
0.676406 0.875152 0.000000 
0.671078 0.924316 0.000000 
0.665751 0.973479 0.000000 
0.613871 0.903801 0.000000 
0.561991 0.834122 0.000000 
0.598778 0.782898 0.000000 
0.635565 0.731674 0.000000 
0.655986 0.803413 0.000000 
0.665751 0.973479 0.000000 
0.664314 0.986739 0.000000 
0.662877 1.000000 0.000000 
0.608032 1.000000 0.000000 
0.553186 1.000000 0.000000 
0.557589 0.917061 0.000000 
0.561991 0.834122 0.000000 
0.613871 0.903801 0.000000 
0.730920 0.000000 0.000000 
0.725706 0.061206 0.000000 
0.720492 0.122413 0.000000 
0.703614 0.159185 0.000000 
0.686736 0.195956 0.000000 
0.697534 0.097978 0.000000 
0.708332 0.000000 0.000000 
0.719626 0.000000 0.000000 
0.720492 0.122413 0.000000 
0.732810 0.221332 0.000000 
0.745127 0.320251 0.000000 
0.709258 0.318657 0.000000 
0.673389 0.317063 0.000000 
0.680063 0.256510 0.000000 
0.686736 0.195956 0.000000 
0.703614 0.159185 0.000000 
0.745127 0.320251 0.000000 
0.782184 0.352658 0.000000 
0.819241 0.385065 0.000000 
0.740636 0.402588 0.000000 
0.662032 0.420111 0.000000 
0.667710 0.368587 0.000000 
0.673389 0.317063 0.000000 
0.709258 0.318657 0.000000 
0.819241 0.385065 0.000000 
0.822982 0.505764 0.000000 
0.826724 0.626464 0.000000 
0.741961 0.545222 0.000000 
0.657197 0.463981 0.000000 
0.659614 0.442046 0.000000 
0.662032 0.420111 0.000000 
0.740636 0.402588 0.000000 
0.826724 0.626464 0.000000 
0.761406 0.631292 0.000000 
0.696089 0.636119 0.000000 
0.664905 0.580151 0.000000 
0.633722 0.524183 0.000000 
0.645460 0.494082 0.000000 
0.657197 0.463981 0.000000 
0.741961 0.545222 0.000000 
0.696089 0.636119 0.000000 
0.665827 0.683897 0.000000 
0.635565 0.731674 0.000000 
0.618106 0.670338 0.000000 
0.600647 0.609002 0.000000 
0.617185 0.566593 0.000000 
0.633722 0.524183 0.000000 
0.664905 0.580151 0.000000 
0.635565 0.731674 0.000000 
0.598778 0.782898 0.000000 
0.561991 0.834122 0.000000 
0.560021 0.776180 0.000000 
0.558051 0.718238 0.000000 
0.579349 0.663620 0.000000 
0.600647 0.609002 0.000000 
0.618106 0.670338 0.000000 
0.561991 0.834122 0.000000 
0.557589 0.917061 0.000000 
0.553186 1.000000 0.000000 
0.500682 1.000000 0.000000 
0.448179 1.000000 0.000000 
0.503115 0.859119 0.000000 
0.558051 0.718238 0.000000 
0.560021 0.776180 0.000000 
0.708332 0.000000 0.000000 
0.697534 0.097978 0.000000 
0.686736 0.195956 0.000000 
0.635244 0.141595 0.000000 
0.583753 0.087234 0.000000 
0.489919 0.043617 0.000000 
0.396085 0.000000 0.000000 
0.552208 0.000000 0.000000 
0.686736 0.195956 0.000000 
0.680063 0.256510 0.000000 
0.673389 0.317063 0.000000 
0.637020 0.285565 0.000000 
0.600652 0.254066 0.000000 
0.592202 0.170650 0.000000 
0.583753 0.087234 0.000000 
0.635244 0.141595 0.000000 
0.673389 0.317063 0.000000 
0.667710 0.368587 0.000000 
0.662032 0.420111 0.000000 
0.536002 0.449243 0.000000 
0.409972 0.478375 0.000000 
0.505312 0.366221 0.000000 
0.600652 0.254066 0.000000 
0.637020 0.285565 0.000000 
0.662032 0.420111 0.000000 
0.659614 0.442046 0.000000 
0.657197 0.463981 0.000000 
0.544131 0.493538 0.000000 
0.431065 0.523096 0.000000 
0.420519 0.500736 0.000000 
0.409972 0.478375 0.000000 
0.536002 0.449243 0.000000 
0.657197 0.463981 0.000000 
0.645460 0.494082 0.000000 
0.633722 0.524183 0.000000 
0.568614 0.553847 0.000000 
0.503506 0.583511 0.000000 
0.467286 0.553303 0.000000 
0.431065 0.523096 0.000000 
0.544131 0.493538 0.000000 
0.633722 0.524183 0.000000 
0.617185 0.566593 0.000000 
0.600647 0.609002 0.000000 
0.568078 0.634856 0.000000 
0.535508 0.660709 0.000000 
0.519507 0.622110 0.000000 
0.503506 0.583511 0.000000 
0.568614 0.553847 0.000000 
0.600647 0.609002 0.000000 
0.579349 0.663620 0.000000 
0.558051 0.718238 0.000000 
0.535672 0.733755 0.000000 
0.513293 0.749272 0.000000 
0.524401 0.704991 0.000000 
0.535508 0.660709 0.000000 
0.568078 0.634856 0.000000 
0.558051 0.718238 0.000000 
0.503115 0.859119 0.000000 
0.448179 1.000000 0.000000 
0.432978 1.000000 0.000000 
0.417777 1.000000 0.000000 
0.465535 0.874636 0.000000 
0.513293 0.749272 0.000000 
0.535672 0.733755 0.000000 
0.396085 0.000000 0.000000 
0.489919 0.043617 0.000000 
0.583753 0.087234 0.000000 
0.475158 0.079908 0.000000 
0.366564 0.072582 0.000000 
0.318123 0.036291 0.000000 
0.269682 0.000000 0.000000 
0.332884 0.000000 0.000000 
0.583753 0.087234 0.000000 
0.592202 0.170650 0.000000 
0.600652 0.254066 0.000000 
0.574531 0.231443 0.000000 
0.548411 0.208820 0.000000 
0.457487 0.140701 0.000000 
0.366564 0.072582 0.000000 
0.475158 0.079908 0.000000 
0.600652 0.254066 0.000000 
0.505312 0.366221 0.000000 
0.409972 0.478375 0.000000 
0.442022 0.391361 0.000000 
0.474073 0.304346 0.000000 
0.511242 0.256583 0.000000 
0.548411 0.208820 0.000000 
0.574531 0.231443 0.000000 
0.409972 0.478375 0.000000 
0.420519 0.500736 0.000000 
0.431065 0.523096 0.000000 
0.351212 0.543971 0.000000 
0.271358 0.564846 0.000000 
0.372715 0.434596 0.000000 
0.474073 0.304346 0.000000 
0.442022 0.391361 0.000000 
0.431065 0.523096 0.000000 
0.467286 0.553303 0.000000 
0.503506 0.583511 0.000000 
0.417970 0.629020 0.000000 
0.332434 0.674528 0.000000 
0.301896 0.619687 0.000000 
0.271358 0.564846 0.000000 
0.351212 0.543971 0.000000 
0.503506 0.583511 0.000000 
0.519507 0.622110 0.000000 
0.535508 0.660709 0.000000 
0.462426 0.718721 0.000000 
0.389345 0.776733 0.000000 
0.360889 0.725631 0.000000 
0.332434 0.674528 0.000000 
0.417970 0.629020 0.000000 
0.535508 0.660709 0.000000 
0.524401 0.704991 0.000000 
0.513293 0.749272 0.000000 
0.431644 0.813226 0.000000 
0.349994 0.877179 0.000000 
0.369669 0.826956 0.000000 
0.389345 0.776733 0.000000 
0.462426 0.718721 0.000000 
0.513293 0.749272 0.000000 
0.465535 0.874636 0.000000 
0.417777 1.000000 0.000000 
0.359827 1.000000 0.000000 
0.301877 1.000000 0.000000 
0.325936 0.938589 0.000000 
0.349994 0.877179 0.000000 
0.431644 0.813226 0.000000 
0.269682 0.000000 0.000000 
0.318123 0.036291 0.000000 
0.366564 0.072582 0.000000 
0.329608 0.101886 0.000000 
0.292653 0.131190 0.000000 
0.174227 0.065595 0.000000 
0.055801 0.000000 0.000000 
0.162742 0.000000 0.000000 
0.366564 0.072582 0.000000 
0.457487 0.140701 0.000000 
0.548411 0.208820 0.000000 
0.375319 0.255339 0.000000 
0.202228 0.301858 0.000000 
0.247441 0.216524 0.000000 
0.292653 0.131190 0.000000 
0.329608 0.101886 0.000000 
0.548411 0.208820 0.000000 
0.511242 0.256583 0.000000 
0.474073 0.304346 0.000000 
0.319424 0.372571 0.000000 
0.164775 0.440795 0.000000 
0.183501 0.371327 0.000000 
0.202228 0.301858 0.000000 
0.375319 0.255339 0.000000 
0.474073 0.304346 0.000000 
0.372715 0.434596 0.000000 
0.271358 0.564846 0.000000 
0.175496 0.589905 0.000000 
0.079635 0.614965 0.000000 
0.122205 0.527880 0.000000 
0.164775 0.440795 0.000000 
0.319424 0.372571 0.000000 
0.271358 0.564846 0.000000 
0.301896 0.619687 0.000000 
0.332434 0.674528 0.000000 
0.279891 0.697925 0.000000 
0.227348 0.721323 0.000000 
0.153491 0.668144 0.000000 
0.079635 0.614965 0.000000 
0.175496 0.589905 0.000000 
0.332434 0.674528 0.000000 
0.360889 0.725631 0.000000 
0.389345 0.776733 0.000000 
0.331836 0.772662 0.000000 
0.274326 0.768590 0.000000 
0.250837 0.744957 0.000000 
0.227348 0.721323 0.000000 
0.279891 0.697925 0.000000 
0.389345 0.776733 0.000000 
0.369669 0.826956 0.000000 
0.349994 0.877179 0.000000 
0.309245 0.861069 0.000000 
0.268496 0.844959 0.000000 
0.271411 0.806774 0.000000 
0.274326 0.768590 0.000000 
0.331836 0.772662 0.000000 
0.349994 0.877179 0.000000 
0.325936 0.938589 0.000000 
0.301877 1.000000 0.000000 
0.265267 1.000000 0.000000 
0.228657 1.000000 0.000000 
0.248577 0.922480 0.000000 
0.268496 0.844959 0.000000 
0.309245 0.861069 0.000000 
0.055801 0.000000 0.000000 
0.174227 0.065595 0.000000 
0.292653 0.131190 0.000000 
0.146327 0.202942 0.000000 
0.000000 0.274694 0.000000 
0.000000 0.137347 0.000000 
0.000000 0.000000 0.000000 
0.027901 0.000000 0.000000 
0.292653 0.131190 0.000000 
0.247441 0.216524 0.000000 
0.202228 0.301858 0.000000 
0.101114 0.329033 0.000000 
0.000000 0.356208 0.000000 
0.000000 0.315451 0.000000 
0.000000 0.274694 0.000000 
0.146327 0.202942 0.000000 
0.202228 0.301858 0.000000 
0.183501 0.371327 0.000000 
0.164775 0.440795 0.000000 
0.082388 0.446195 0.000000 
0.000000 0.451596 0.000000 
0.000000 0.403902 0.000000 
0.000000 0.356208 0.000000 
0.101114 0.329033 0.000000 
0.164775 0.440795 0.000000 
0.122205 0.527880 0.000000 
0.079635 0.614965 0.000000 
0.039817 0.625374 0.000000 
0.000000 0.635783 0.000000 
0.000000 0.543689 0.000000 
0.000000 0.451596 0.000000 
0.082388 0.446195 0.000000 
0.079635 0.614965 0.000000 
0.153491 0.668144 0.000000 
0.227348 0.721323 0.000000 
0.113674 0.719144 0.000000 
0.000000 0.716965 0.000000 
0.000000 0.676374 0.000000 
0.000000 0.635783 0.000000 
0.039817 0.625374 0.000000 
0.227348 0.721323 0.000000 
0.250837 0.744957 0.000000 
0.274326 0.768590 0.000000 
0.137163 0.758880 0.000000 
0.000000 0.749170 0.000000 
0.000000 0.733067 0.000000 
0.000000 0.716965 0.000000 
0.113674 0.719144 0.000000 
0.274326 0.768590 0.000000 
0.271411 0.806774 0.000000 
0.268496 0.844959 0.000000 
0.134248 0.864596 0.000000 
0.000000 0.884233 0.000000 
0.000000 0.816701 0.000000 
0.000000 0.749170 0.000000 
0.137163 0.758880 0.000000 
0.268496 0.844959 0.000000 
0.248577 0.922480 0.000000 
0.228657 1.000000 0.000000 
0.114329 1.000000 0.000000 
0.000000 1.000000 0.000000 
0.000000 0.942117 0.000000 
0.000000 0.884233 0.000000 
0.134248 0.864596 0.000000 
CELLS 64 576 
 8 0 1 2 3 4 5 6 7  
 8 8 9 10 11 12 13 14 15  
 8 16 17 18 19 20 21 22 23  
 8 24 25 26 27 28 29 30 31  
 8 32 33 34 35 36 37 38 39  
 8 40 41 42 43 44 45 46 47  
 8 48 49 50 51 52 53 54 55  
 8 56 57 58 59 60 61 62 63  
 8 64 65 66 67 68 69 70 71  
 8 72 73 74 75 76 77 78 79  
 8 80 81 82 83 84 85 86 87  
 8 88 89 90 91 92 93 94 95  
 8 96 97 98 99 100 101 102 103  
 8 104 105 106 107 108 109 110 111  
 8 112 113 114 115 116 117 118 119  
 8 120 121 122 123 124 125 126 127  
 8 128 129 130 131 132 133 134 135  
 8 136 137 138 139 140 141 142 143  
 8 144 145 146 147 148 149 150 151  
 8 152 153 154 155 156 157 158 159  
 8 160 161 162 163 164 165 166 167  
 8 168 169 170 171 172 173 174 175  
 8 176 177 178 179 180 181 182 183  
 8 184 185 186 187 188 189 190 191  
 8 192 193 194 195 196 197 198 199  
 8 200 201 202 203 204 205 206 207  
 8 208 209 210 211 212 213 214 215  
 8 216 217 218 219 220 221 222 223  
 8 224 225 226 227 228 229 230 231  
 8 232 233 234 235 236 237 238 239  
 8 240 241 242 243 244 245 246 247  
 8 248 249 250 251 252 253 254 255  
 8 256 257 258 259 260 261 262 263  
 8 264 265 266 267 268 269 270 271  
 8 272 273 274 275 276 277 278 279  
 8 280 281 282 283 284 285 286 287  
 8 288 289 290 291 292 293 294 295  
 8 296 297 298 299 300 301 302 303  
 8 304 305 306 307 308 309 310 311  
 8 312 313 314 315 316 317 318 319  
 8 320 321 322 323 324 325 326 327  
 8 328 329 330 331 332 333 334 335  
 8 336 337 338 339 340 341 342 343  
 8 344 345 346 347 348 349 350 351  
 8 352 353 354 355 356 357 358 359  
 8 360 361 362 363 364 365 366 367  
 8 368 369 370 371 372 373 374 375  
 8 376 377 378 379 380 381 382 383  
 8 384 385 386 387 388 389 390 391  
 8 392 393 394 395 396 397 398 399  
 8 400 401 402 403 404 405 406 407  
 8 408 409 410 411 412 413 414 415  
 8 416 417 418 419 420 421 422 423  
 8 424 425 426 427 428 429 430 431  
 8 432 433 434 435 436 437 438 439  
 8 440 441 442 443 444 445 446 447  
 8 448 449 450 451 452 453 454 455  
 8 456 457 458 459 460 461 462 463  
 8 464 465 466 467 468 469 470 471  
 8 472 473 474 475 476 477 478 479  
 8 480 481 482 483 484 485 486 487  
 8 488 489 490 491 492 493 494 495  
 8 496 497 498 499 500 501 502 503  
 8 504 505 506 507 508 509 510 511  
 
CELL_TYPES 64
7
7
7
7
7
7
7
7
7
7
7
7
7
7
7
7
7
7
7
7
7
7
7
7
7
7
7
7
7
7
7
7
7
7
7
7
7
7
7
7
7
7
7
7
7
7
7
7
7
7
7
7
7
7
7
7
7
7
7
7
7
7
7
7
CELL_DATA 64
FIELD FieldData 1
material 1 64 int
1
1
1
1
1
1
1
1
1
1
1
1
1
1
1
1
1
1
1
1
1
1
1
1
1
1
1
1
1
1
1
1
1
1
1
1
1
1
1
1
1
1
1
1
1
1
1
1
1
1
1
1
1
1
1
1
1
1
1
1
1
1
1
1
POINT_DATA 512 SCALARS flux_g1 double 
LOOKUP_TABLE   default 
1.88521652e+01
1.98768764e+01
2.10329585e+01
2.03194378e+01
1.96319307e+01
1.87201508e+01
1.79384842e+01
1.83827258e+01
2.10308887e+01
2.45949288e+01
2.91779805e+01
2.66962320e+01
2.44464749e+01
2.17894956e+01
1.96248805e+01
2.03066333e+01
2.91779078e+01
2.98819197e+01
3.06482055e+01
2.93990824e+01
2.82202527e+01
2.62136267e+01
2.44497626e+01
2.66963291e+01
3.06460407e+01
3.16784334e+01
3.27596639e+01
3.14222132e+01
3.01536623e+01
2.91575584e+01
2.82201502e+01
2.93991893e+01
3.27597893e+01
3.29377432e+01
3.31181750e+01
3.14791517e+01
2.99437904e+01
3.00462304e+01
3.01536014e+01
3.14221430e+01
3.31183959e+01
3.35503378e+01
3.39920310e+01
3.26537741e+01
3.14120148e+01
3.06555968e+01
2.99439388e+01
3.14787724e+01
3.39908613e+01
3.45899664e+01
3.52041122e+01
3.26659581e+01
3.04639373e+01
3.08917116e+01
3.14124004e+01
3.26553753e+01
3.52044460e+01
3.64235356e+01
3.77012995e+01
3.53347423e+01
3.31453164e+01
3.17683966e+01
3.04646453e+01
3.26642847e+01
1.79386066e+01
1.87200628e+01
1.96324897e+01
1.84413396e+01
1.73424036e+01
1.60686594e+01
1.49556258e+01
1.63780297e+01
1.96271213e+01
2.17849003e+01
2.44482250e+01
2.28793599e+01
2.14559075e+01
1.92214423e+01
1.73413544e+01
1.84377821e+01
2.44495822e+01
2.62160064e+01
2.82202012e+01
2.53866593e+01
2.29292940e+01
2.21706993e+01
2.14534669e+01
2.28843176e+01
2.82208929e+01
2.91533878e+01
3.01544144e+01
2.86614618e+01
2.72544248e+01
2.49069037e+01
2.29306859e+01
2.53866930e+01
3.01533438e+01
3.00453802e+01
2.99423029e+01
2.85697776e+01
2.73176905e+01
2.72318635e+01
2.72535147e+01
2.86635851e+01
2.99424572e+01
3.06546052e+01
3.14122268e+01
2.93078794e+01
2.74462622e+01
2.73658754e+01
2.73181361e+01
2.85694806e+01
3.14123659e+01
3.08865339e+01
3.04640827e+01
2.99196230e+01
2.93996526e+01
2.83941532e+01
2.74465146e+01
2.93075666e+01
3.04652321e+01
3.17769245e+01
3.31450048e+01
3.14922780e+01
2.99423035e+01
2.96674988e+01
2.93996254e+01
2.99186597e+01
1.49572679e+01
1.60721689e+01
1.73430719e+01
1.63895496e+01
1.55105909e+01
1.48339073e+01
1.42419174e+01
1.45921344e+01
1.73423398e+01
1.92214369e+01
2.14539407e+01
1.99737927e+01
1.86368754e+01
1.69348786e+01
1.55109899e+01
1.63904576e+01
2.14526770e+01
2.21701490e+01
2.29297676e+01
2.19433102e+01
2.10131187e+01
1.97785575e+01
1.86370111e+01
1.99739152e+01
2.29305760e+01
2.49062493e+01
2.72547658e+01
2.63334064e+01
2.54488319e+01
2.30428785e+01
2.10139350e+01
2.19447984e+01
2.72533323e+01
2.72321896e+01
2.73180163e+01
2.50594164e+01
2.30399165e+01
2.41949560e+01
2.54473713e+01
2.63322327e+01
2.73181992e+01
2.73664052e+01
2.74472335e+01
2.54910367e+01
2.37098719e+01
2.33521518e+01
2.30401106e+01
2.50591875e+01
2.74470274e+01
2.83959990e+01
2.93989190e+01
2.67449948e+01
2.43665110e+01
2.40107304e+01
2.37096564e+01
2.54914849e+01
2.93991683e+01
2.96670137e+01
2.99423514e+01
2.88036519e+01
2.77287848e+01
2.59674470e+01
2.43666486e+01
2.67455319e+01
1.42423767e+01
1.48332135e+01
1.55111901e+01
1.56974595e+01
1.59017177e+01
1.48006876e+01
1.38976115e+01
1.40672786e+01
1.55112506e+01
1.69348395e+01
1.86367189e+01
1.79766150e+01
1.73507524e+01
1.65837991e+01
1.59017895e+01
1.56952612e+01
1.86370461e+01
1.97790629e+01
2.10128551e+01
1.97987878e+01
1.87138870e+01
1.80040154e+01
1.73513228e+01
1.79774775e+01
2.10135853e+01
2.30432908e+01
2.54486258e+01
2.21348931e+01
1.93300156e+01
1.90170672e+01
1.87147960e+01
1.97974444e+01
2.54478546e+01
2.41942812e+01
2.30394320e+01
2.14026279e+01
1.99120674e+01
1.96121604e+01
1.93298467e+01
2.21339485e+01
2.30396776e+01
2.33527710e+01
2.37094307e+01
2.21885363e+01
2.07934341e+01
2.03349750e+01
1.99119111e+01
2.14024443e+01
2.37094984e+01
2.40093369e+01
2.43663201e+01
2.31533234e+01
2.20294418e+01
2.13832323e+01
2.07937259e+01
2.21889698e+01
2.43671177e+01
2.59689223e+01
2.77291006e+01
2.67083440e+01
2.57505148e+01
2.36996872e+01
2.20288238e+01
2.31524880e+01
1.38973787e+01
1.47931048e+01
1.59000833e+01
1.43616286e+01
1.30371597e+01
1.12277466e+01
9.77199444e+00
1.15924930e+01
1.59015323e+01
1.65814706e+01
1.73507896e+01
1.62831239e+01
1.53044764e+01
1.40705517e+01
1.30383952e+01
1.43631347e+01
1.73513519e+01
1.80035467e+01
1.87124323e+01
1.69885830e+01
1.56041461e+01
1.53165399e+01
1.53058263e+01
1.62822869e+01
1.87131641e+01
1.90157795e+01
1.93285126e+01
1.78268895e+01
1.65946960e+01
1.60888915e+01
1.56047556e+01
1.69881756e+01
1.93285035e+01
1.96107715e+01
1.99110855e+01
1.92653030e+01
1.87045442e+01
1.76074668e+01
1.65947312e+01
1.78271768e+01
1.99111975e+01
2.03347033e+01
2.07935853e+01
2.06753841e+01
2.05799147e+01
1.96130545e+01
1.87043461e+01
1.92649946e+01
2.07936168e+01
2.13836413e+01
2.20292037e+01
2.19214169e+01
2.18238565e+01
2.11826616e+01
2.05798425e+01
2.06752943e+01
2.20283726e+01
2.37003827e+01
2.57504075e+01
2.54736811e+01
2.52028491e+01
2.33640054e+01
2.18235509e+01
2.19209794e+01
9.77103324e+00
1.12282091e+01
1.30383900e+01
1.14101773e+01
1.01054916e+01
9.20607473e+00
8.44582753e+00
9.05392969e+00
1.30392332e+01
1.40707654e+01
1.53042787e+01
1.46015981e+01
1.39437503e+01
1.17848179e+01
1.01054554e+01
1.14102391e+01
1.53052720e+01
1.53161425e+01
1.56035272e+01
1.47739964e+01
1.40921532e+01
1.39962820e+01
1.39440940e+01
1.46024260e+01
1.56040538e+01
1.60888084e+01
1.65949560e+01
1.57221652e+01
1.49798559e+01
1.43559344e+01
1.40923424e+01
1.47740391e+01
1.65948843e+01
1.76075946e+01
1.87045480e+01
1.80755352e+01
1.75846250e+01
1.62129744e+01
1.49796578e+01
1.57228207e+01
1.87042772e+01
1.96130525e+01
2.05800180e+01
2.03664144e+01
2.02621926e+01
1.88632362e+01
1.75847786e+01
1.80761638e+01
2.05800791e+01
2.11822634e+01
2.18241158e+01
2.16082132e+01
2.15356340e+01
2.08729619e+01
2.02620323e+01
2.03660385e+01
2.18238200e+01
2.33629670e+01
2.52027122e+01
2.41751079e+01
2.32219782e+01
2.23437546e+01
2.15358192e+01
2.16080260e+01
8.44491438e+00
9.19884050e+00
1.01073527e+01
9.95885143e+00
9.84934160e+00
7.93955759e+00
6.66952775e+00
7.43874635e+00
1.01049707e+01
1.17852005e+01
1.39443672e+01
1.20101606e+01
1.06758229e+01
1.01977046e+01
9.85004252e+00
9.96025589e+00
1.39442451e+01
1.39957476e+01
1.40926103e+01
1.27903756e+01
1.19436623e+01
1.12583028e+01
1.06757528e+01
1.20104284e+01
1.40922675e+01
1.43566322e+01
1.49795955e+01
1.40868222e+01
1.33818076e+01
1.25911696e+01
1.19436281e+01
1.27909033e+01
1.49794492e+01
1.62131186e+01
1.75851572e+01
1.72073431e+01
1.68798125e+01
1.49780335e+01
1.33824874e+01
1.40867051e+01
1.75851617e+01
1.88632272e+01
2.02620563e+01
1.92643900e+01
1.83566354e+01
1.75979009e+01
1.68797325e+01
1.72075672e+01
2.02621957e+01
2.08734576e+01
2.15358533e+01
2.05623080e+01
1.96528541e+01
1.89873507e+01
1.83571727e+01
1.92642607e+01
2.15359631e+01
2.23433706e+01
2.32220225e+01
2.26237493e+01
2.20584865e+01
2.07962023e+01
1.96532000e+01
2.05625090e+01
6.67321285e+00
7.94123551e+00
9.84932847e+00
8.97293585e+00
8.49405047e+00
7.20360591e+00
6.29459772e+00
6.46141263e+00
9.84931093e+00
1.01966839e+01
1.06757988e+01
9.89660653e+00
9.32435590e+00
8.88669242e+00
8.49452948e+00
8.97654326e+00
1.06757385e+01
1.12582977e+01
1.19443141e+01
1.10987043e+01
1.04086844e+01
9.83878882e+00
9.32387588e+00
9.89720132e+00
1.19442269e+01
1.25910802e+01
1.33835900e+01
1.30868567e+01
1.28276409e+01
1.15311722e+01
1.04082969e+01
1.10962207e+01
1.33825815e+01
1.49771158e+01
1.68804961e+01
1.52887592e+01
1.40261985e+01
1.34067019e+01
1.28270198e+01
1.30894122e+01
1.68803675e+01
1.75981829e+01
1.83565825e+01
1.61898734e+01
1.45255697e+01
1.42724031e+01
1.40262288e+01
1.52893869e+01
1.83573744e+01
1.89863352e+01
1.96532446e+01
1.80102152e+01
1.67606126e+01
1.55911068e+01
1.45257124e+01
1.61879959e+01
1.96535645e+01
2.07903894e+01
2.20585761e+01
2.03223613e+01
1.88549751e+01
1.77655934e+01
1.67615814e+01
1.80094918e+01
 
