# vtk DataFile Version 3.0 
Date: 3/21/2016   Time: 14:2
ASCII 
DATASET UNSTRUCTURED_GRID 
 
POINTS 880 float 
0.000000 0.000000 0.000000 
0.031250 0.000000 0.000000 
0.062500 0.000000 0.000000 
0.062500 0.031250 0.000000 
0.062500 0.062500 0.000000 
0.031250 0.062500 0.000000 
0.000000 0.062500 0.000000 
0.000000 0.031250 0.000000 
0.000000 0.062500 0.000000 
0.031250 0.062500 0.000000 
0.062500 0.062500 0.000000 
0.089773 0.089773 0.000000 
0.117045 0.117045 0.000000 
0.103835 0.152273 0.000000 
0.090625 0.187500 0.000000 
0.045312 0.187500 0.000000 
0.000000 0.187500 0.000000 
0.000000 0.125000 0.000000 
0.000000 0.187500 0.000000 
0.045312 0.187500 0.000000 
0.090625 0.187500 0.000000 
0.104366 0.242463 0.000000 
0.118107 0.297426 0.000000 
0.114647 0.304963 0.000000 
0.111187 0.312500 0.000000 
0.055593 0.312500 0.000000 
0.000000 0.312500 0.000000 
0.000000 0.250000 0.000000 
0.000000 0.312500 0.000000 
0.055593 0.312500 0.000000 
0.111187 0.312500 0.000000 
0.113546 0.341292 0.000000 
0.115906 0.370084 0.000000 
0.111703 0.381292 0.000000 
0.107500 0.392500 0.000000 
0.085000 0.415000 0.000000 
0.062500 0.437500 0.000000 
0.031250 0.437500 0.000000 
0.000000 0.437500 0.000000 
0.000000 0.375000 0.000000 
0.000000 0.437500 0.000000 
0.031250 0.437500 0.000000 
0.062500 0.437500 0.000000 
0.062500 0.462500 0.000000 
0.062500 0.487500 0.000000 
0.031250 0.518750 0.000000 
0.000000 0.550000 0.000000 
0.000000 0.493750 0.000000 
0.000000 0.570833 0.000000 
0.021930 0.585454 0.000000 
0.043860 0.600074 0.000000 
0.021930 0.622004 0.000000 
0.000000 0.643934 0.000000 
0.000000 0.607384 0.000000 
0.000000 0.695277 0.000000 
0.039283 0.702290 0.000000 
0.078566 0.709302 0.000000 
0.077647 0.716287 0.000000 
0.076728 0.723272 0.000000 
0.038364 0.761636 0.000000 
0.000000 0.800000 0.000000 
0.000000 0.747639 0.000000 
0.000000 0.820833 0.000000 
0.053750 0.856667 0.000000 
0.107500 0.892500 0.000000 
0.085000 0.915000 0.000000 
0.062500 0.937500 0.000000 
0.031250 0.937500 0.000000 
0.000000 0.937500 0.000000 
0.000000 0.879166 0.000000 
0.000000 0.937500 0.000000 
0.031250 0.937500 0.000000 
0.062500 0.937500 0.000000 
0.062500 0.968750 0.000000 
0.062500 1.000000 0.000000 
0.031250 1.000000 0.000000 
0.000000 1.000000 0.000000 
0.000000 0.968750 0.000000 
0.062500 0.000000 0.000000 
0.125000 0.000000 0.000000 
0.187500 0.000000 0.000000 
0.187500 0.045312 0.000000 
0.187500 0.090625 0.000000 
0.152273 0.103835 0.000000 
0.117045 0.117045 0.000000 
0.089773 0.089773 0.000000 
0.062500 0.062500 0.000000 
0.062500 0.031250 0.000000 
0.117045 0.117045 0.000000 
0.152273 0.103835 0.000000 
0.187500 0.090625 0.000000 
0.242463 0.104366 0.000000 
0.297426 0.118107 0.000000 
0.282542 0.192882 0.000000 
0.267657 0.267657 0.000000 
0.192882 0.282542 0.000000 
0.118107 0.297426 0.000000 
0.104366 0.242463 0.000000 
0.090625 0.187500 0.000000 
0.103835 0.152273 0.000000 
0.111187 0.312500 0.000000 
0.114647 0.304963 0.000000 
0.118107 0.297426 0.000000 
0.192882 0.282542 0.000000 
0.267657 0.267657 0.000000 
0.298044 0.298044 0.000000 
0.328432 0.328432 0.000000 
0.318720 0.365778 0.000000 
0.309008 0.403124 0.000000 
0.299853 0.412279 0.000000 
0.290698 0.421434 0.000000 
0.283713 0.422353 0.000000 
0.276728 0.423272 0.000000 
0.196317 0.396678 0.000000 
0.115906 0.370084 0.000000 
0.113546 0.341292 0.000000 
0.107500 0.392500 0.000000 
0.111703 0.381292 0.000000 
0.115906 0.370084 0.000000 
0.196317 0.396678 0.000000 
0.276728 0.423272 0.000000 
0.236360 0.463640 0.000000 
0.195992 0.504008 0.000000 
0.180533 0.491434 0.000000 
0.165074 0.478860 0.000000 
0.136287 0.435680 0.000000 
0.062500 0.437500 0.000000 
0.085000 0.415000 0.000000 
0.107500 0.392500 0.000000 
0.136287 0.435680 0.000000 
0.165074 0.478860 0.000000 
0.132574 0.511360 0.000000 
0.100074 0.543860 0.000000 
0.081287 0.515680 0.000000 
0.062500 0.487500 0.000000 
0.062500 0.462500 0.000000 
0.000000 0.550000 0.000000 
0.031250 0.518750 0.000000 
0.062500 0.487500 0.000000 
0.081287 0.515680 0.000000 
0.100074 0.543860 0.000000 
0.100828 0.546140 0.000000 
0.101581 0.548419 0.000000 
0.075000 0.575000 0.000000 
0.048419 0.601581 0.000000 
0.046140 0.600828 0.000000 
0.043860 0.600074 0.000000 
0.021930 0.585454 0.000000 
0.000000 0.570833 0.000000 
0.000000 0.560417 0.000000 
0.000000 0.643934 0.000000 
0.021930 0.622004 0.000000 
0.043860 0.600074 0.000000 
0.046140 0.600828 0.000000 
0.048419 0.601581 0.000000 
0.072647 0.646286 0.000000 
0.096876 0.690992 0.000000 
0.087721 0.700147 0.000000 
0.078566 0.709302 0.000000 
0.039283 0.702290 0.000000 
0.000000 0.695277 0.000000 
0.000000 0.669606 0.000000 
0.000000 0.820833 0.000000 
0.000000 0.810417 0.000000 
0.000000 0.800000 0.000000 
0.038364 0.761636 0.000000 
0.076728 0.723272 0.000000 
0.103322 0.803683 0.000000 
0.129916 0.884094 0.000000 
0.118708 0.888297 0.000000 
0.107500 0.892500 0.000000 
0.053750 0.856667 0.000000 
0.107500 0.892500 0.000000 
0.118708 0.888297 0.000000 
0.129916 0.884094 0.000000 
0.158708 0.886454 0.000000 
0.187500 0.888813 0.000000 
0.187500 0.944406 0.000000 
0.187500 1.000000 0.000000 
0.125000 1.000000 0.000000 
0.062500 1.000000 0.000000 
0.062500 0.968750 0.000000 
0.062500 0.937500 0.000000 
0.085000 0.915000 0.000000 
0.187500 0.000000 0.000000 
0.250000 0.000000 0.000000 
0.312500 0.000000 0.000000 
0.312500 0.055593 0.000000 
0.312500 0.111187 0.000000 
0.304963 0.114647 0.000000 
0.297426 0.118107 0.000000 
0.242463 0.104366 0.000000 
0.187500 0.090625 0.000000 
0.187500 0.045312 0.000000 
0.297426 0.118107 0.000000 
0.304963 0.114647 0.000000 
0.312500 0.111187 0.000000 
0.341292 0.113546 0.000000 
0.370084 0.115906 0.000000 
0.396678 0.196317 0.000000 
0.423272 0.276728 0.000000 
0.422353 0.283713 0.000000 
0.421434 0.290698 0.000000 
0.412279 0.299853 0.000000 
0.403124 0.309008 0.000000 
0.365778 0.318720 0.000000 
0.328432 0.328432 0.000000 
0.298044 0.298044 0.000000 
0.267657 0.267657 0.000000 
0.282542 0.192882 0.000000 
0.328432 0.328432 0.000000 
0.365778 0.318720 0.000000 
0.403124 0.309008 0.000000 
0.427353 0.353714 0.000000 
0.451581 0.398419 0.000000 
0.425000 0.425000 0.000000 
0.398419 0.451581 0.000000 
0.353714 0.427353 0.000000 
0.309008 0.403124 0.000000 
0.318720 0.365778 0.000000 
0.290698 0.421434 0.000000 
0.299853 0.412279 0.000000 
0.309008 0.403124 0.000000 
0.353714 0.427353 0.000000 
0.398419 0.451581 0.000000 
0.399173 0.453861 0.000000 
0.399926 0.456140 0.000000 
0.367426 0.488640 0.000000 
0.334926 0.521140 0.000000 
0.319467 0.508566 0.000000 
0.304008 0.495992 0.000000 
0.297353 0.458713 0.000000 
0.276728 0.423272 0.000000 
0.283713 0.422353 0.000000 
0.290698 0.421434 0.000000 
0.297353 0.458713 0.000000 
0.304008 0.495992 0.000000 
0.263640 0.536360 0.000000 
0.223272 0.576728 0.000000 
0.216287 0.577647 0.000000 
0.209302 0.578566 0.000000 
0.202647 0.541287 0.000000 
0.195992 0.504008 0.000000 
0.236360 0.463640 0.000000 
0.165074 0.478860 0.000000 
0.180533 0.491434 0.000000 
0.195992 0.504008 0.000000 
0.202647 0.541287 0.000000 
0.209302 0.578566 0.000000 
0.200147 0.587721 0.000000 
0.190992 0.596876 0.000000 
0.146286 0.572647 0.000000 
0.101581 0.548419 0.000000 
0.100828 0.546140 0.000000 
0.100074 0.543860 0.000000 
0.132574 0.511360 0.000000 
0.048419 0.601581 0.000000 
0.075000 0.575000 0.000000 
0.101581 0.548419 0.000000 
0.146286 0.572647 0.000000 
0.190992 0.596876 0.000000 
0.181280 0.634222 0.000000 
0.171568 0.671568 0.000000 
0.134222 0.681280 0.000000 
0.096876 0.690992 0.000000 
0.072647 0.646286 0.000000 
0.076728 0.723272 0.000000 
0.077647 0.716287 0.000000 
0.078566 0.709302 0.000000 
0.087721 0.700147 0.000000 
0.096876 0.690992 0.000000 
0.134222 0.681280 0.000000 
0.171568 0.671568 0.000000 
0.201956 0.701955 0.000000 
0.232343 0.732343 0.000000 
0.217459 0.807118 0.000000 
0.202574 0.881893 0.000000 
0.195037 0.885353 0.000000 
0.187500 0.888813 0.000000 
0.158708 0.886454 0.000000 
0.129916 0.884094 0.000000 
0.103322 0.803683 0.000000 
0.187500 0.888813 0.000000 
0.195037 0.885353 0.000000 
0.202574 0.881893 0.000000 
0.257537 0.895634 0.000000 
0.312500 0.909375 0.000000 
0.312500 0.954688 0.000000 
0.312500 1.000000 0.000000 
0.250000 1.000000 0.000000 
0.187500 1.000000 0.000000 
0.187500 0.944406 0.000000 
0.312500 0.000000 0.000000 
0.375000 0.000000 0.000000 
0.437500 0.000000 0.000000 
0.437500 0.031250 0.000000 
0.437500 0.062500 0.000000 
0.415000 0.085000 0.000000 
0.392500 0.107500 0.000000 
0.381292 0.111703 0.000000 
0.370084 0.115906 0.000000 
0.341292 0.113546 0.000000 
0.312500 0.111187 0.000000 
0.312500 0.055593 0.000000 
0.370084 0.115906 0.000000 
0.381292 0.111703 0.000000 
0.392500 0.107500 0.000000 
0.435680 0.136287 0.000000 
0.478860 0.165074 0.000000 
0.491434 0.180533 0.000000 
0.504008 0.195992 0.000000 
0.463640 0.236360 0.000000 
0.423272 0.276728 0.000000 
0.396678 0.196317 0.000000 
0.403124 0.309008 0.000000 
0.412279 0.299853 0.000000 
0.421434 0.290698 0.000000 
0.458713 0.297353 0.000000 
0.495992 0.304008 0.000000 
0.508566 0.319467 0.000000 
0.521140 0.334926 0.000000 
0.488640 0.367426 0.000000 
0.456140 0.399926 0.000000 
0.453861 0.399173 0.000000 
0.451581 0.398419 0.000000 
0.427353 0.353714 0.000000 
0.451581 0.398419 0.000000 
0.453861 0.399173 0.000000 
0.456140 0.399926 0.000000 
0.484320 0.418713 0.000000 
0.512500 0.437500 0.000000 
0.475000 0.475000 0.000000 
0.437500 0.512500 0.000000 
0.418713 0.484320 0.000000 
0.399926 0.456140 0.000000 
0.399173 0.453861 0.000000 
0.398419 0.451581 0.000000 
0.425000 0.425000 0.000000 
0.334926 0.521140 0.000000 
0.367426 0.488640 0.000000 
0.399926 0.456140 0.000000 
0.418713 0.484320 0.000000 
0.437500 0.512500 0.000000 
0.437500 0.537500 0.000000 
0.437500 0.562500 0.000000 
0.415000 0.585000 0.000000 
0.392500 0.607500 0.000000 
0.363713 0.564320 0.000000 
0.304008 0.495992 0.000000 
0.319467 0.508566 0.000000 
0.334926 0.521140 0.000000 
0.363713 0.564320 0.000000 
0.392500 0.607500 0.000000 
[...]
CELL_DATA 81
FIELD FieldData 1
material 1 81 int
1
1
1
1
1
1
1
1
1
1
1
1
1
1
1
1
1
1
1
1
1
1
1
1
1
1
1
1
1
1
1
1
1
1
1
1
1
1
1
1
1
1
1
1
1
1
1
1
1
1
1
1
1
1
1
1
1
1
1
1
1
1
1
1
1
1
1
1
1
1
1
1
1
1
1
1
1
1
1
1
1
POINT_DATA 880 SCALARS flux_g1 double 
LOOKUP_TABLE   default 
6.28429139e+00
6.48239996e+00
6.70310526e+00
6.91310862e+00
7.14667232e+00
6.91310862e+00
6.70310526e+00
6.48239996e+00
6.70432124e+00
6.91120270e+00
7.14645656e+00
7.55404316e+00
8.01665287e+00
8.20288288e+00
8.41568283e+00
8.02371536e+00
7.68635441e+00
7.15127159e+00
7.68525639e+00
8.02557677e+00
8.41480164e+00
9.03750504e+00
9.76223161e+00
9.82206540e+00
9.85897733e+00
9.32251299e+00
8.86401130e+00
8.23160559e+00
8.86446562e+00
9.32176198e+00
9.85945794e+00
1.01952806e+01
1.05558227e+01
1.06352607e+01
1.07344863e+01
1.07741181e+01
1.08277200e+01
1.05195513e+01
1.02380781e+01
9.50719316e+00
1.02376750e+01
1.05198048e+01
1.08279866e+01
1.11318351e+01
1.14521591e+01
1.15348452e+01
1.16423212e+01
1.09061476e+01
1.19188139e+01
1.23332028e+01
1.27719041e+01
1.28483009e+01
1.29361101e+01
1.24134885e+01
1.36911597e+01
1.42160842e+01
1.47867947e+01
1.48740479e+01
1.49853891e+01
1.51431591e+01
1.53337633e+01
1.44841312e+01
1.56773804e+01
1.68879262e+01
1.82507605e+01
1.83605516e+01
1.84851856e+01
1.80789367e+01
1.76985072e+01
1.66516676e+01
1.76982745e+01
1.80799178e+01
1.84856651e+01
1.90615633e+01
1.96617403e+01
1.92449983e+01
1.88503810e+01
1.82633033e+01
6.70432124e+00
7.15127159e+00
7.68635441e+00
8.02371536e+00
8.41568283e+00
8.20288288e+00
8.01665287e+00
7.55404316e+00
7.14645656e+00
6.91120270e+00
8.01625319e+00
8.20282449e+00
8.41437556e+00
9.03808979e+00
9.76190443e+00
1.03227807e+01
1.10002711e+01
1.03227807e+01
9.76190443e+00
9.03808979e+00
8.41437556e+00
8.20282449e+00
9.85985203e+00
9.82181869e+00
9.76207697e+00
1.03233752e+01
1.10002367e+01
1.16888396e+01
1.24468197e+01
1.27915422e+01
1.31645557e+01
1.31714452e+01
1.31781341e+01
1.30954620e+01
1.30285578e+01
1.16733468e+01
1.05549088e+01
1.01960703e+01
1.07338702e+01
1.06367048e+01
1.05548524e+01
1.16742363e+01
1.30281242e+01
1.30653716e+01
1.31419793e+01
1.27837390e+01
1.24404006e+01
1.15386058e+01
1.08279468e+01
1.07749852e+01
1.07343746e+01
1.15382626e+01
1.24406674e+01
1.25050337e+01
1.25958610e+01
1.20034120e+01
1.14520274e+01
1.11319319e+01
1.16423665e+01
1.15351312e+01
1.14521256e+01
1.20029456e+01
1.25963206e+01
1.26386057e+01
1.26750958e+01
1.27497495e+01
1.28414446e+01
1.28182642e+01
1.27719698e+01
1.23328330e+01
1.19190998e+01
1.17772984e+01
1.29358105e+01
1.28483750e+01
1.27713864e+01
1.28178976e+01
1.28416653e+01
1.37327731e+01
1.47161446e+01
1.47497561e+01
1.47869422e+01
1.42169859e+01
1.36910920e+01
1.33062908e+01
1.56775978e+01
1.54987188e+01
1.53340241e+01
1.51426907e+01
1.49853624e+01
1.65747022e+01
1.83972559e+01
1.83114027e+01
1.82505835e+01
1.68879024e+01
1.82514499e+01
1.83104306e+01
1.83979776e+01
1.88274807e+01
1.92822001e+01
2.03168288e+01
2.14305121e+01
2.05027126e+01
1.96626037e+01
1.90595080e+01
1.84855828e+01
1.83597623e+01
7.68525639e+00
8.23160559e+00
8.86401130e+00
9.32251299e+00
9.85897733e+00
9.82206540e+00
9.76223161e+00
9.03750504e+00
8.41480164e+00
8.02557677e+00
9.76207697e+00
9.82181869e+00
9.85985203e+00
1.01960703e+01
1.05549088e+01
1.16733468e+01
1.30285578e+01
1.30954620e+01
1.31781341e+01
1.31714452e+01
1.31645557e+01
1.27915422e+01
1.24468197e+01
1.16888396e+01
1.10002367e+01
1.03233752e+01
1.24467372e+01
1.27913188e+01
1.31644525e+01
1.40548248e+01
1.50357914e+01
1.50268367e+01
1.50357914e+01
1.40548248e+01
1.31644525e+01
1.27913188e+01
1.31781885e+01
1.31703001e+01
1.31646003e+01
1.40547157e+01
1.50359937e+01
1.50752727e+01
1.51234261e+01
1.51350971e+01
1.51731934e+01
1.47728058e+01
1.43871731e+01
1.37613860e+01
1.30285247e+01
1.30960240e+01
1.31780008e+01
1.37616826e+01
1.43870828e+01
1.44353978e+01
1.45249428e+01
1.44521817e+01
1.43760783e+01
1.37378989e+01
1.31420680e+01
1.30647829e+01
1.24404430e+01
1.27839931e+01
1.31420078e+01
1.37381963e+01
1.43760927e+01
1.43990148e+01
1.44201526e+01
1.35020989e+01
1.26751903e+01
1.26399907e+01
1.25958340e+01
1.25044270e+01
1.28416045e+01
1.27498882e+01
1.26752917e+01
1.35016062e+01
1.44201189e+01
1.48589411e+01
1.53268910e+01
1.50074179e+01
1.47160051e+01
1.37325933e+01
1.49866964e+01
1.48705169e+01
1.47904009e+01
1.47460400e+01
1.47175777e+01
1.50071382e+01
1.53267463e+01
1.61906838e+01
1.71250747e+01
1.81886798e+01
1.93682619e+01
1.93315967e+01
1.92827773e+01
1.88277728e+01
1.83972049e+01
1.65741182e+01
1.92816322e+01
1.93320011e+01
1.93684452e+01
2.04135284e+01
2.15598442e+01
2.24517875e+01
2.33932595e+01
2.23679714e+01
2.14302762e+01
2.03171881e+01
8.86446562e+00
9.50719316e+00
1.02380781e+01
1.05195513e+01
1.08277200e+01
1.07741181e+01
1.07344863e+01
1.06352607e+01
1.05558227e+01
1.01952806e+01
9.85945794e+00
9.32176198e+00
1.05548524e+01
1.06367048e+01
1.07338702e+01
1.15386058e+01
1.24404006e+01
1.27837390e+01
1.31419793e+01
1.30653716e+01
1.30281242e+01
1.16742363e+01
1.31646003e+01
1.31703001e+01
1.31781885e+01
1.37613860e+01
1.43871731e+01
1.47728058e+01
1.51731934e+01
1.51350971e+01
1.51234261e+01
1.50752727e+01
1.50359937e+01
1.40547157e+01
1.50359137e+01
1.50749551e+01
1.51234990e+01
1.57986908e+01
1.65164984e+01
1.64987215e+01
1.65164984e+01
1.57986908e+01
1.51234990e+01
1.50749551e+01
1.50359137e+01
1.50267281e+01
1.51732495e+01
1.51352610e+01
1.51234388e+01
1.57987493e+01
1.65165138e+01
1.69033639e+01
1.73060208e+01
1.73239718e+01
1.73543644e+01
1.62142525e+01
1.43871346e+01
1.47727963e+01
1.51732803e+01
1.62142567e+01
1.73542911e+01
1.74744009e+01
1.75976317e+01
1.59446271e+01
1.45248761e+01
1.44352689e+01
1.44199182e+01
1.43995837e+01
1.43758446e+01
1.44523570e+01
1.45248353e+01
1.59444867e+01
1.75974191e+01
1.81114095e+01
1.86473055e+01
1.87238489e+01
1.88036209e+01
1.79058879e+01
1.71252414e+01
1.61914353e+01
1.53266025e+01
1.48591426e+01
1.71252096e+01
1.79056972e+01
1.88036614e+01
1.99790476e+01
2.12540989e+01
2.17073376e+01
2.21850600e+01
2.18602202e+01
2.15600678e+01
2.04141963e+01
1.93681838e+01
1.81876573e+01
2.15605980e+01
2.18598471e+01
2.21855121e+01
2.31794696e+01
2.42290905e+01
2.48782211e+01
2.55534916e+01
2.44294150e+01
2.33942099e+01
2.24501619e+01
1.02376750e+01
1.09061476e+01
1.16423212e+01
1.15348452e+01
1.14521591e+01
1.11318351e+01
1.08279866e+01
1.05198048e+01
1.08279468e+01
1.11319319e+01
1.14520274e+01
1.20034120e+01
1.25958610e+01
1.25050337e+01
1.24406674e+01
1.15382626e+01
1.07343746e+01
1.07749852e+01
1.31420680e+01
1.37378989e+01
1.43760783e+01
1.44521817e+01
1.45249428e+01
1.44353978e+01
1.43870828e+01
1.37616826e+01
1.31780008e+01
1.30960240e+01
1.30285247e+01
1.30647829e+01
1.51234388e+01
1.51352610e+01
1.51732495e+01
1.62142525e+01
1.73543644e+01
1.73239718e+01
1.73060208e+01
1.69033639e+01
1.65165138e+01
1.57987493e+01
1.65164755e+01
1.69034241e+01
1.73060111e+01
1.82631696e+01
1.93189877e+01
1.82631696e+01
1.73060111e+01
1.69034241e+01
1.65164755e+01
1.64987323e+01
1.73541917e+01
1.73238058e+01
1.73060376e+01
1.82632809e+01
1.93189192e+01
2.02402319e+01
2.12170930e+01
2.16116977e+01
2.20302011e+01
2.02116239e+01
1.86476279e+01
1.81110693e+01
1.75975408e+01
1.74740882e+01
1.88037296e+01
1.87239994e+01
1.86474372e+01
2.02117243e+01
2.20301926e+01
2.33019039e+01
2.46736870e+01
2.47533146e+01
2.48462517e+01
2.29230546e+01
2.12546811e+01
1.99790665e+01
2.12546009e+01
2.29229980e+01
2.48464048e+01
2.54772685e+01
2.61306760e+01
2.62822079e+01
2.64424460e+01
2.64820609e+01
2.65359728e+01
2.53340345e+01
2.42286925e+01
2.31798148e+01
2.21851778e+01
2.17079353e+01
2.42290775e+01
2.53339750e+01
2.65359980e+01
2.72105061e+01
2.79083381e+01
2.66887772e+01
2.55523962e+01
2.48793508e+01
1.19188139e+01
1.24134885e+01
1.29361101e+01
1.28483009e+01
1.27719041e+01
1.23332028e+01
1.16423665e+01
1.17772984e+01
1.19190998e+01
1.23328330e+01
1.27719698e+01
1.28182642e+01
1.28414446e+01
1.27497495e+01
1.26750958e+01
1.26386057e+01
1.25963206e+01
1.20029456e+01
1.14521256e+01
1.15351312e+01
1.25958340e+01
1.26399907e+01
1.26751903e+01
1.35020989e+01
1.44201526e+01
1.43990148e+01
1.43760927e+01
1.37381963e+01
1.31420078e+01
1.27839931e+01
1.24404430e+01
1.25044270e+01
1.43871346e+01
1.44352689e+01
1.45248761e+01
1.59446271e+01
1.75976317e+01
1.74744009e+01
1.73542911e+01
1.62142567e+01
1.51732803e+01
1.47727963e+01
1.73060376e+01
1.73238058e+01
1.73541917e+01
1.74740882e+01
1.75975408e+01
1.81110693e+01
1.86476279e+01
2.02116239e+01
2.20302011e+01
2.16116977e+01
2.12170930e+01
2.02402319e+01
1.93189192e+01
1.82632809e+01
2.12171044e+01
2.16116107e+01
2.20301362e+01
2.33018448e+01
2.46738594e+01
2.57975500e+01
2.70398957e+01
2.57975500e+01
2.46738594e+01
2.33018448e+01
2.20301362e+01
2.16116107e+01
2.48462723e+01
2.47533756e+01
2.46736593e+01
2.57983252e+01
2.70397078e+01
2.83007649e+01
2.96328615e+01
3.02376047e+01
3.08726387e+01
3.08734219e+01
3.08877016e+01
3.07400702e+01
3.06203411e+01
2.82588850e+01
2.61305503e+01
2.54778291e+01
2.64423588e+01
2.62809405e+01
2.61308554e+01
2.82584377e+01
3.06196638e+01
3.06562418e+01
3.07273803e+01
3.05004686e+01
3.02856091e+01
2.82871009e+01
2.65357678e+01
2.64820541e+01
2.64422730e+01
2.82872607e+01
3.02852612e+01
2.90600760e+01
2.79084325e+01
2.72105783e+01
1.36911597e+01
1.44841312e+01
1.53337633e+01
1.51431591e+01
1.49853891e+01
1.48740479e+01
1.47867947e+01
1.42160842e+01
1.27713864e+01
1.28483750e+01
1.29358105e+01
1.33062908e+01
1.36910920e+01
1.42169859e+01
1.47869422e+01
1.47497561e+01
1.47161446e+01
1.37327731e+01
1.28416653e+01
1.28178976e+01
1.26752917e+01
1.27498882e+01
1.28416045e+01
1.37325933e+01
1.47160051e+01
1.50074179e+01
1.53268910e+01
1.48589411e+01
1.44201189e+01
1.35016062e+01
1.45248353e+01
1.44523570e+01
1.43758446e+01
1.43995837e+01
1.44199182e+01
1.48591426e+01
1.53266025e+01
1.61914353e+01
1.71252414e+01
1.79058879e+01
1.88036209e+01
1.87238489e+01
1.86473055e+01
1.81114095e+01
1.75974191e+01
1.59444867e+01
1.86474372e+01
1.87239994e+01
1.88037296e+01
1.99790665e+01
2.12546811e+01
2.29230546e+01
2.48462517e+01
2.47533146e+01
2.46736870e+01
2.33019039e+01
2.20301926e+01
2.02117243e+01
2.46736593e+01
2.47533756e+01
2.48462723e+01
2.54778291e+01
2.61305503e+01
2.82588850e+01
3.06203411e+01
3.07400702e+01
3.08877016e+01
3.08734219e+01
3.08726387e+01
3.02376047e+01
2.96328615e+01
2.83007649e+01
2.70397078e+01
2.57983252e+01
2.96329001e+01
3.02375489e+01
3.08713970e+01
3.24105097e+01
3.40415817e+01
3.40327602e+01
3.40415817e+01
3.24105097e+01
3.08713970e+01
3.02375489e+01
3.08844475e+01
3.08781099e+01
3.08714794e+01
3.24105157e+01
3.40415420e+01
3.41287408e+01
3.41851595e+01
3.41940749e+01
3.42125996e+01
3.36155932e+01
3.30324270e+01
3.19363287e+01
3.06193177e+01
3.07428044e+01
3.08844938e+01
3.19352448e+01
3.30325839e+01
3.18517251e+01
3.07270178e+01
3.06566161e+01
1.56773804e+01
1.66516676e+01
1.76985072e+01
1.80789367e+01
1.84851856e+01
1.83605516e+01
1.82507605e+01
1.68879262e+01
1.53340241e+01
1.54987188e+01
1.56775978e+01
1.68879024e+01
1.82505835e+01
1.83114027e+01
1.83972559e+01
1.65747022e+01
1.49853624e+01
1.51426907e+01
1.47175777e+01
1.47460400e+01
1.47904009e+01
1.48705169e+01
1.49866964e+01
1.65741182e+01
1.83972049e+01
1.88277728e+01
1.92827773e+01
1.93315967e+01
1.93682619e+01
1.81886798e+01
1.71250747e+01
1.61906838e+01
1.53267463e+01
1.50071382e+01
1.71252096e+01
1.81876573e+01
1.93681838e+01
2.04141963e+01
2.15600678e+01
2.18602202e+01
2.21850600e+01
2.17073376e+01
2.12540989e+01
1.99790476e+01
1.88036614e+01
1.79056972e+01
2.12546009e+01
2.17079353e+01
2.21851778e+01
2.31798148e+01
2.42286925e+01
2.53340345e+01
2.65359728e+01
2.64820609e+01
2.64424460e+01
2.62822079e+01
2.61306760e+01
2.54772685e+01
2.48464048e+01
2.29229980e+01
2.61308554e+01
2.62809405e+01
2.64423588e+01
2.82871009e+01
3.02856091e+01
3.05004686e+01
3.07273803e+01
3.06562418e+01
3.06196638e+01
2.82584377e+01
3.08714794e+01
3.08781099e+01
3.08844475e+01
3.19363287e+01
3.30324270e+01
3.36155932e+01
3.42125996e+01
3.41940749e+01
3.41851595e+01
3.41287408e+01
3.40415420e+01
3.24105157e+01
3.40402364e+01
3.41292113e+01
3.41859731e+01
3.50565257e+01
3.59513937e+01
3.62030596e+01
3.64590672e+01
3.64512002e+01
3.64590672e+01
3.62030596e+01
3.59513937e+01
3.50565257e+01
3.41859731e+01
3.41292113e+01
3.40402364e+01
3.40327079e+01
3.41858258e+01
3.50566827e+01
3.59513418e+01
3.50690153e+01
3.42129681e+01
3.41943076e+01
1.76982745e+01
1.82633033e+01
1.88503810e+01
1.92449983e+01
1.96617403e+01
1.90615633e+01
1.84856651e+01
1.80799178e+01
1.82514499e+01
1.83597623e+01
1.84855828e+01
1.90595080e+01
1.96626037e+01
2.05027126e+01
2.14305121e+01
2.03168288e+01
1.92822001e+01
1.88274807e+01
1.83979776e+01
1.83104306e+01
1.93684452e+01
1.93320011e+01
1.92816322e+01
2.03171881e+01
2.14302762e+01
2.23679714e+01
2.33932595e+01
2.24517875e+01
2.15598442e+01
2.04135284e+01
2.15605980e+01
2.24501619e+01
2.33942099e+01
2.44294150e+01
2.55534916e+01
2.48782211e+01
2.42290905e+01
2.31794696e+01
2.21855121e+01
2.18598471e+01
2.42290775e+01
2.48793508e+01
2.55523962e+01
2.66887772e+01
2.79083381e+01
2.72105061e+01
2.65359980e+01
2.53339750e+01
2.65357678e+01
2.72105783e+01
2.79084325e+01
2.90600760e+01
3.02852612e+01
2.82872607e+01
2.64422730e+01
2.64820541e+01
3.07270178e+01
3.18517251e+01
3.30325839e+01
3.19352448e+01
3.08844938e+01
3.07428044e+01
3.06193177e+01
3.06566161e+01
3.42129681e+01
3.50690153e+01
3.59513418e+01
3.50566827e+01
3.41858258e+01
3.41943076e+01
3.64589801e+01
3.70727758e+01
3.76994446e+01
3.70727758e+01
3.64589801e+01
3.64517578e+01
 
