# vtk DataFile Version 3.0 
Date: 3/21/2016   Time: 14:1
ASCII 
DATASET UNSTRUCTURED_GRID 
 
POINTS 1200 float 
0.100000 0.500000 0.000000 
0.150000 0.450000 0.000000 
0.200000 0.400000 0.000000 
0.200000 0.450000 0.000000 
0.200000 0.500000 0.000000 
0.150000 0.500000 0.000000 
0.300000 0.200000 0.000000 
0.300000 0.250000 0.000000 
0.300000 0.300000 0.000000 
0.250000 0.300000 0.000000 
0.200000 0.300000 0.000000 
0.250000 0.250000 0.000000 
0.300000 0.600000 0.000000 
0.300000 0.650000 0.000000 
0.300000 0.700000 0.000000 
0.250000 0.700000 0.000000 
0.200000 0.700000 0.000000 
0.250000 0.650000 0.000000 
0.200000 0.900000 0.000000 
0.150000 0.900000 0.000000 
0.100000 0.900000 0.000000 
0.150000 0.850000 0.000000 
0.200000 0.800000 0.000000 
0.200000 0.850000 0.000000 
0.400000 0.200000 0.000000 
0.400000 0.250000 0.000000 
0.400000 0.300000 0.000000 
0.350000 0.300000 0.000000 
0.300000 0.300000 0.000000 
0.350000 0.250000 0.000000 
0.400000 0.100000 0.000000 
0.400000 0.050000 0.000000 
0.400000 0.000000 0.000000 
0.450000 0.000000 0.000000 
0.500000 0.000000 0.000000 
0.450000 0.050000 0.000000 
0.100000 0.800000 0.000000 
0.150000 0.800000 0.000000 
0.200000 0.800000 0.000000 
0.150000 0.850000 0.000000 
0.100000 0.900000 0.000000 
0.100000 0.850000 0.000000 
0.200000 0.200000 0.000000 
0.250000 0.150000 0.000000 
0.300000 0.100000 0.000000 
0.300000 0.150000 0.000000 
0.300000 0.200000 0.000000 
0.250000 0.200000 0.000000 
0.600000 0.300000 0.000000 
0.650000 0.250000 0.000000 
0.700000 0.200000 0.000000 
0.700000 0.250000 0.000000 
0.700000 0.300000 0.000000 
0.650000 0.300000 0.000000 
0.600000 0.100000 0.000000 
0.550000 0.100000 0.000000 
0.500000 0.100000 0.000000 
0.550000 0.050000 0.000000 
0.600000 0.000000 0.000000 
0.600000 0.050000 0.000000 
0.800000 0.400000 0.000000 
0.800000 0.350000 0.000000 
0.800000 0.300000 0.000000 
0.850000 0.300000 0.000000 
0.900000 0.300000 0.000000 
0.850000 0.350000 0.000000 
0.100000 0.100000 0.000000 
0.050000 0.150000 0.000000 
0.000000 0.200000 0.000000 
0.000000 0.150000 0.000000 
0.000000 0.100000 0.000000 
0.050000 0.100000 0.000000 
0.100000 0.200000 0.000000 
0.150000 0.200000 0.000000 
0.200000 0.200000 0.000000 
0.150000 0.250000 0.000000 
0.100000 0.300000 0.000000 
0.100000 0.250000 0.000000 
0.200000 0.100000 0.000000 
0.150000 0.100000 0.000000 
0.100000 0.100000 0.000000 
0.150000 0.050000 0.000000 
0.200000 0.000000 0.000000 
0.200000 0.050000 0.000000 
0.300000 0.100000 0.000000 
0.350000 0.100000 0.000000 
0.400000 0.100000 0.000000 
0.350000 0.150000 0.000000 
0.300000 0.200000 0.000000 
0.300000 0.150000 0.000000 
0.600000 0.700000 0.000000 
0.600000 0.650000 0.000000 
0.600000 0.600000 0.000000 
0.650000 0.600000 0.000000 
0.700000 0.600000 0.000000 
0.650000 0.650000 0.000000 
0.100000 0.200000 0.000000 
0.100000 0.250000 0.000000 
0.100000 0.300000 0.000000 
0.050000 0.300000 0.000000 
0.000000 0.300000 0.000000 
0.050000 0.250000 0.000000 
0.300000 0.500000 0.000000 
0.300000 0.450000 0.000000 
0.300000 0.400000 0.000000 
0.350000 0.400000 0.000000 
0.400000 0.400000 0.000000 
0.350000 0.450000 0.000000 
0.200000 0.300000 0.000000 
0.200000 0.350000 0.000000 
0.200000 0.400000 0.000000 
0.150000 0.400000 0.000000 
0.100000 0.400000 0.000000 
0.150000 0.350000 0.000000 
0.100000 0.200000 0.000000 
0.100000 0.150000 0.000000 
0.100000 0.100000 0.000000 
0.150000 0.100000 0.000000 
0.200000 0.100000 0.000000 
0.150000 0.150000 0.000000 
0.200000 0.300000 0.000000 
0.250000 0.300000 0.000000 
0.300000 0.300000 0.000000 
0.250000 0.350000 0.000000 
0.200000 0.400000 0.000000 
0.200000 0.350000 0.000000 
0.100000 0.600000 0.000000 
0.150000 0.600000 0.000000 
0.200000 0.600000 0.000000 
0.150000 0.650000 0.000000 
0.100000 0.700000 0.000000 
0.100000 0.650000 0.000000 
0.000000 0.400000 0.000000 
0.050000 0.350000 0.000000 
0.100000 0.300000 0.000000 
0.100000 0.350000 0.000000 
0.100000 0.400000 0.000000 
0.050000 0.400000 0.000000 
0.000000 0.500000 0.000000 
0.050000 0.500000 0.000000 
0.100000 0.500000 0.000000 
0.050000 0.550000 0.000000 
0.000000 0.600000 0.000000 
0.000000 0.550000 0.000000 
0.200000 0.600000 0.000000 
0.250000 0.600000 0.000000 
0.300000 0.600000 0.000000 
0.250000 0.650000 0.000000 
0.200000 0.700000 0.000000 
0.200000 0.650000 0.000000 
0.400000 0.700000 0.000000 
0.400000 0.750000 0.000000 
0.400000 0.800000 0.000000 
0.350000 0.800000 0.000000 
0.300000 0.800000 0.000000 
0.350000 0.750000 0.000000 
0.200000 0.900000 0.000000 
0.150000 0.950000 0.000000 
0.100000 1.000000 0.000000 
0.100000 0.950000 0.000000 
0.100000 0.900000 0.000000 
0.150000 0.900000 0.000000 
0.400000 0.500000 0.000000 
0.450000 0.450000 0.000000 
0.500000 0.400000 0.000000 
0.500000 0.450000 0.000000 
0.500000 0.500000 0.000000 
0.450000 0.500000 0.000000 
0.200000 0.800000 0.000000 
0.250000 0.800000 0.000000 
0.300000 0.800000 0.000000 
0.250000 0.850000 0.000000 
0.200000 0.900000 0.000000 
0.200000 0.850000 0.000000 
0.400000 0.500000 0.000000 
0.400000 0.450000 0.000000 
0.400000 0.400000 0.000000 
0.450000 0.400000 0.000000 
0.500000 0.400000 0.000000 
0.450000 0.450000 0.000000 
0.600000 0.300000 0.000000 
0.550000 0.300000 0.000000 
0.500000 0.300000 0.000000 
0.550000 0.250000 0.000000 
0.600000 0.200000 0.000000 
0.600000 0.250000 0.000000 
0.600000 0.500000 0.000000 
0.600000 0.550000 0.000000 
0.600000 0.600000 0.000000 
0.550000 0.600000 0.000000 
0.500000 0.600000 0.000000 
0.550000 0.550000 0.000000 
0.500000 0.700000 0.000000 
0.450000 0.750000 0.000000 
0.400000 0.800000 0.000000 
0.400000 0.750000 0.000000 
0.400000 0.700000 0.000000 
0.450000 0.700000 0.000000 
0.600000 0.700000 0.000000 
0.650000 0.700000 0.000000 
0.700000 0.700000 0.000000 
0.650000 0.750000 0.000000 
0.600000 0.800000 0.000000 
0.600000 0.750000 0.000000 
0.000000 1.000000 0.000000 
0.000000 0.950000 0.000000 
0.000000 0.900000 0.000000 
0.050000 0.900000 0.000000 
0.100000 0.900000 0.000000 
0.050000 0.950000 0.000000 
0.600000 0.500000 0.000000 
0.650000 0.500000 0.000000 
0.700000 0.500000 0.000000 
0.650000 0.550000 0.000000 
0.600000 0.600000 0.000000 
0.600000 0.550000 0.000000 
0.400000 0.900000 0.000000 
0.450000 0.900000 0.000000 
0.500000 0.900000 0.000000 
0.450000 0.950000 0.000000 
0.400000 1.000000 0.000000 
0.400000 0.950000 0.000000 
0.900000 1.000000 0.000000 
0.950000 0.950000 0.000000 
1.000000 0.900000 0.000000 
1.000000 0.950000 0.000000 
1.000000 1.000000 0.000000 
0.950000 1.000000 0.000000 
0.600000 1.000000 0.000000 
0.550000 1.000000 0.000000 
0.500000 1.000000 0.000000 
0.550000 0.950000 0.000000 
0.600000 0.900000 0.000000 
0.600000 0.950000 0.000000 
1.000000 0.800000 0.000000 
1.000000 0.850000 0.000000 
1.000000 0.900000 0.000000 
0.950000 0.900000 0.000000 
0.900000 0.900000 0.000000 
0.950000 0.850000 0.000000 
0.700000 0.800000 0.000000 
0.700000 0.850000 0.000000 
0.700000 0.900000 0.000000 
0.650000 0.900000 0.000000 
0.600000 0.900000 0.000000 
0.650000 0.850000 0.000000 
0.600000 0.200000 0.000000 
0.600000 0.150000 0.000000 
0.600000 0.100000 0.000000 
0.650000 0.100000 0.000000 
0.700000 0.100000 0.000000 
0.650000 0.150000 0.000000 
0.900000 0.600000 0.000000 
0.900000 0.550000 0.000000 
0.900000 0.500000 0.000000 
0.950000 0.500000 0.000000 
1.000000 0.500000 0.000000 
0.950000 0.550000 0.000000 
0.700000 0.300000 0.000000 
0.700000 0.350000 0.000000 
0.700000 0.400000 0.000000 
0.650000 0.400000 0.000000 
0.600000 0.400000 0.000000 
0.650000 0.350000 0.000000 
0.900000 0.400000 0.000000 
0.900000 0.350000 0.000000 
0.900000 0.300000 0.000000 
0.950000 0.300000 0.000000 
1.000000 0.300000 0.000000 
0.950000 0.350000 0.000000 
0.700000 0.200000 0.000000 
0.700000 0.150000 0.000000 
0.700000 0.100000 0.000000 
0.750000 0.100000 0.000000 
0.800000 0.100000 0.000000 
0.750000 0.150000 0.000000 
1.000000 0.200000 0.000000 
1.000000 0.250000 0.000000 
1.000000 0.300000 0.000000 
0.950000 0.300000 0.000000 
0.900000 0.300000 0.000000 
0.950000 0.250000 0.000000 
0.800000 0.100000 0.000000 
0.800000 0.050000 0.000000 
0.800000 0.000000 0.000000 
0.850000 0.000000 0.000000 
0.900000 0.000000 0.000000 
0.850000 0.050000 0.000000 
0.900000 0.400000 0.000000 
0.950000 0.400000 0.000000 
1.000000 0.400000 0.000000 
0.950000 0.450000 0.000000 
0.900000 0.500000 0.000000 
0.900000 0.450000 0.000000 
0.800000 0.300000 0.000000 
0.850000 0.250000 0.000000 
0.900000 0.200000 0.000000 
0.900000 0.250000 0.000000 
0.900000 0.300000 0.000000 
0.850000 0.300000 0.000000 
0.000000 0.100000 0.000000 
0.000000 0.050000 0.000000 
0.000000 0.000000 0.000000 
0.050000 0.000000 0.000000 
0.100000 0.000000 0.000000 
0.050000 0.050000 0.000000 
0.100000 0.100000 0.000000 
0.050000 0.100000 0.000000 
0.000000 0.100000 0.000000 
0.050000 0.050000 0.000000 
0.100000 0.000000 0.000000 
0.100000 0.050000 0.000000 
0.200000 0.200000 0.000000 
0.200000 0.150000 0.000000 
0.200000 0.100000 0.000000 
0.250000 0.100000 0.000000 
0.300000 0.100000 0.000000 
0.250000 0.150000 0.000000 
0.200000 0.200000 0.000000 
0.150000 0.200000 0.000000 
0.100000 0.200000 0.000000 
0.150000 0.150000 0.000000 
0.200000 0.100000 0.000000 
0.200000 0.150000 0.000000 
0.200000 0.000000 0.000000 
0.150000 0.050000 0.000000 
0.100000 0.100000 0.000000 
0.100000 0.050000 0.000000 
0.100000 0.000000 0.000000 
0.150000 0.000000 0.000000 
0.100000 0.200000 0.000000 
0.050000 0.200000 0.000000 
0.000000 0.200000 0.000000 
0.050000 0.150000 0.000000 
0.100000 0.100000 0.000000 
0.100000 0.150000 0.000000 
0.200000 0.100000 0.000000 
0.200000 0.050000 0.000000 
0.200000 0.000000 0.000000 
0.250000 0.000000 0.000000 
0.300000 0.000000 0.000000 
0.250000 0.050000 0.000000 
0.200000 0.100000 0.000000 
0.250000 0.050000 0.000000 
0.300000 0.000000 0.000000 
0.300000 0.050000 0.000000 
0.300000 0.100000 0.000000 
0.250000 0.100000 0.000000 
0.300000 0.000000 0.000000 
0.350000 0.000000 0.000000 
0.400000 0.000000 0.000000 
0.350000 0.050000 0.000000 
0.300000 0.100000 0.000000 
[...]
CELL_DATA 200
FIELD FieldData 1
material 1 200 int
1
1
1
1
1
1
1
1
1
1
1
1
1
1
1
1
1
1
1
1
1
1
1
1
1
1
1
1
1
1
1
1
1
1
1
1
1
1
1
1
1
1
1
1
1
1
1
1
1
1
1
1
1
1
1
1
1
1
1
1
1
1
1
1
1
1
1
1
1
1
1
1
1
1
1
1
1
1
1
1
1
1
1
1
1
1
1
1
1
1
1
1
1
1
1
1
1
1
1
1
1
1
1
1
1
1
1
1
1
1
1
1
1
1
1
1
1
1
1
1
1
1
1
1
1
1
1
1
1
1
1
1
1
1
1
1
1
1
1
1
1
1
1
1
1
1
1
1
1
1
1
1
1
1
1
1
1
1
1
1
1
1
1
1
1
1
1
1
1
1
1
1
1
1
1
1
1
1
1
1
1
1
1
1
1
1
1
1
1
1
1
1
1
1
1
1
1
1
1
1
POINT_DATA 1200 SCALARS flux_g1 double 
LOOKUP_TABLE   default 
1.20037360e+01
1.18771863e+01
1.18146797e+01
1.24441609e+01
1.31343857e+01
1.25389456e+01
1.06209616e+01
1.11562582e+01
1.17516640e+01
1.11562582e+01
1.06209616e+01
1.05896768e+01
1.58987102e+01
1.66851729e+01
1.75323113e+01
1.68109177e+01
1.61502519e+01
1.59932200e+01
1.96696287e+01
1.89479308e+01
1.82875188e+01
1.80348189e+01
1.78468461e+01
1.87276762e+01
1.18148227e+01
1.23812252e+01
1.30083150e+01
1.23499216e+01
1.17517269e+01
1.17519280e+01
1.07466288e+01
1.02454850e+01
9.80367833e+00
1.03741806e+01
1.09977965e+01
1.08420372e+01
1.65280360e+01
1.71568799e+01
1.78468461e+01
1.80348189e+01
1.82875188e+01
1.73771345e+01
9.55290780e+00
9.55256595e+00
9.61613314e+00
1.00888674e+01
1.06209998e+01
1.00567573e+01
1.58987102e+01
1.59932200e+01
1.61502519e+01
1.68109177e+01
1.75323113e+01
1.66851729e+01
1.33858355e+01
1.26644596e+01
1.20035795e+01
1.21300196e+01
1.23174693e+01
1.28216137e+01
2.08625391e+01
2.00467270e+01
1.92919348e+01
2.02046294e+01
2.11772534e+01
2.09880093e+01
7.73111671e+00
7.73167910e+00
7.79338828e+00
7.35878882e+00
6.97660227e+00
7.32423428e+00
8.61080586e+00
9.05198594e+00
9.55302385e+00
9.55250652e+00
9.61600254e+00
9.08312651e+00
8.61082138e+00
8.14155364e+00
7.73151583e+00
7.73150736e+00
7.79350006e+00
8.17243977e+00
9.61608749e+00
1.01510934e+01
1.07469505e+01
1.06521250e+01
1.06208563e+01
1.00886464e+01
2.24331706e+01
2.14916684e+01
2.06109829e+01
2.14916684e+01
2.24331706e+01
2.24018079e+01
8.61081749e+00
9.08329866e+00
9.61585396e+00
9.14624229e+00
8.73598945e+00
8.64288259e+00
1.43906638e+01
1.36693421e+01
1.30084114e+01
1.36377119e+01
1.43278197e+01
1.43278664e+01
1.06208230e+01
1.11875860e+01
1.18148560e+01
1.12510211e+01
1.07471096e+01
1.06520438e+01
8.61078256e+00
8.14108447e+00
7.73159211e+00
8.14108447e+00
8.61078256e+00
8.57849396e+00
1.06208475e+01
1.11563041e+01
1.17516968e+01
1.17518194e+01
1.18148557e+01
1.11876272e+01
1.33859938e+01
1.39524541e+01
1.45794375e+01
1.47048524e+01
1.48939340e+01
1.41092810e+01
9.80417667e+00
9.67952798e+00
9.61592924e+00
1.01512864e+01
1.07468442e+01
1.02455782e+01
1.09974853e+01
1.14706298e+01
1.20033017e+01
1.21301191e+01
1.23172968e+01
1.16307425e+01
1.45793250e+01
1.52085902e+01
1.58987299e+01
1.59930442e+01
1.61503199e+01
1.53343136e+01
1.90403226e+01
1.99209792e+01
2.08625103e+01
2.00467026e+01
1.92919126e+01
1.91346369e+01
1.96693980e+01
1.98898238e+01
2.01719807e+01
1.91991056e+01
1.82873396e+01
1.89479668e+01
1.57729889e+01
1.57414620e+01
1.57729889e+01
1.64963238e+01
1.72809552e+01
1.64963238e+01
1.78469714e+01
1.85387918e+01
1.92917712e+01
1.94486260e+01
1.96696551e+01
1.87279243e+01
1.57729510e+01
1.50199273e+01
1.43279137e+01
1.50199273e+01
1.57729510e+01
1.57414743e+01
1.58986994e+01
1.51144264e+01
1.43907111e+01
1.44536924e+01
1.45794389e+01
1.52085421e+01
1.89145436e+01
1.97323163e+01
2.06110990e+01
1.97323163e+01
1.89145436e+01
1.88830670e+01
2.06738964e+01
2.07368777e+01
2.08626242e+01
1.99209311e+01
1.90402920e+01
1.98268154e+01
2.24330930e+01
2.33454959e+01
2.43180975e+01
2.43182986e+01
2.43811933e+01
2.33767995e+01
1.88519853e+01
1.79141453e+01
1.70297969e+01
1.76284181e+01
1.82870225e+01
1.85400890e+01
1.89145528e+01
1.97636776e+01
2.06738963e+01
2.06110190e+01
2.06110561e+01
1.97323083e+01
2.28106134e+01
2.36600339e+01
2.45699501e+01
2.46963902e+01
2.48838400e+01
2.38171880e+01
3.52509067e+01
3.52218628e+01
3.52509067e+01
3.64498677e+01
3.77003489e+01
3.64498677e+01
2.86532343e+01
2.76529402e+01
2.67057597e+01
2.65500005e+01
2.64545921e+01
2.75242446e+01
3.29261295e+01
3.40623264e+01
3.52509362e+01
3.40277718e+01
3.28638579e+01
3.28644203e+01
2.63288196e+01
2.73674060e+01
2.84656434e+01
2.74298530e+01
2.64549138e+01
2.63600883e+01
1.45794375e+01
1.39524541e+01
1.33859938e+01
1.41092810e+01
1.48939340e+01
1.47048524e+01
2.64548773e+01
2.54822044e+01
2.45698821e+01
2.56078971e+01
2.67059493e+01
2.65498873e+01
1.75322950e+01
1.82559424e+01
1.90402792e+01
1.81615026e+01
1.73438297e+01
1.74067740e+01
2.28106792e+01
2.19635236e+01
2.11770270e+01
2.21521615e+01
2.31874523e+01
2.29685837e+01
1.61502081e+01
1.54920112e+01
1.48940261e+01
1.56801851e+01
1.65278669e+01
1.63071937e+01
2.16166439e+01
2.23750229e+01
2.31869561e+01
2.21520515e+01
2.11768222e+01
2.13665111e+01
1.65274981e+01
1.59001897e+01
1.53331688e+01
1.61548591e+01
1.70302114e+01
1.67483601e+01
2.28106134e+01
2.38171880e+01
2.48838400e+01
2.46963902e+01
2.45699501e+01
2.36600339e+01
1.92918008e+01
1.94487863e+01
1.96694596e+01
2.03925741e+01
2.11772114e+01
2.02044002e+01
6.97657282e+00
6.60473754e+00
6.28442236e+00
6.60473754e+00
6.97657282e+00
6.94752895e+00
7.73124498e+00
7.32451378e+00
6.97701244e+00
6.94732139e+00
6.97701244e+00
7.32451378e+00
9.55302385e+00
9.05198594e+00
8.61080586e+00
9.08312651e+00
9.61600254e+00
9.55250652e+00
9.55316789e+00
9.05222321e+00
8.61085319e+00
8.57835880e+00
8.61085319e+00
9.05222321e+00
7.79338828e+00
7.73167910e+00
7.73111671e+00
7.32423428e+00
6.97660227e+00
7.35878882e+00
8.61082138e+00
8.17243977e+00
7.79350006e+00
7.73150736e+00
7.73151583e+00
8.14155364e+00
8.61060565e+00
8.17232907e+00
7.79301684e+00
8.23808580e+00
8.73581495e+00
8.64286132e+00
8.61081749e+00
8.64288259e+00
8.73598945e+00
9.14624229e+00
9.61585396e+00
9.08329866e+00
8.73550093e+00
9.24328727e+00
9.80397301e+00
9.67965137e+00
9.61563463e+00
9.14614440e+00
1.37626743e+01
1.42981798e+01
1.48938417e+01
1.41095419e+01
1.33859012e+01
1.35438058e+01
1.30083471e+01
1.23812683e+01
1.18147125e+01
1.24441882e+01
1.31343570e+01
1.30398227e+01
1.20033017e+01
1.14706298e+01
1.09974853e+01
1.16307425e+01
1.23172968e+01
1.21301191e+01
1.18147256e+01
1.12507873e+01
1.07470705e+01
1.13448012e+01
1.20035875e+01
1.18772534e+01
9.61592924e+00
9.67952798e+00
9.80417667e+00
1.02455782e+01
1.07468442e+01
1.01512864e+01
1.18146797e+01
1.18771863e+01
1.20037360e+01
1.25389456e+01
1.31343857e+01
1.24441609e+01
1.07469141e+01
1.08419240e+01
1.09979860e+01
1.14707302e+01
1.20035115e+01
1.13450375e+01
1.43906717e+01
1.36693403e+01
1.30083687e+01
1.30399491e+01
1.31343075e+01
1.37320136e+01
1.06208230e+01
1.06520438e+01
1.07471096e+01
1.12510211e+01
1.18148560e+01
1.11875860e+01
1.57729601e+01
1.50199193e+01
1.43278708e+01
1.43278337e+01
1.43907110e+01
1.50512887e+01
1.30083311e+01
1.23499584e+01
1.17517464e+01
1.23499584e+01
1.30083311e+01
1.29770812e+01
1.58986530e+01
1.58044471e+01
1.57729793e+01
1.50513216e+01
1.43907252e+01
1.51144249e+01
1.58987299e+01
1.52085902e+01
1.45793250e+01
1.53343136e+01
1.61503199e+01
1.59930442e+01
1.18148557e+01
1.17518194e+01
1.17516968e+01
1.11563041e+01
1.06208475e+01
1.11876272e+01
1.30083150e+01
1.23812252e+01
1.18148227e+01
1.17519280e+01
1.17517269e+01
1.23499216e+01
1.30083926e+01
1.36376868e+01
1.43277976e+01
1.36376868e+01
1.30083926e+01
1.29770300e+01
1.30084114e+01
1.36693421e+01
1.43906638e+01
1.43278664e+01
1.43278197e+01
1.36377119e+01
1.20036957e+01
1.25387159e+01
1.31342521e+01
1.32281532e+01
1.33859069e+01
1.26642047e+01
1.18147125e+01
1.23812683e+01
1.30083471e+01
1.30398227e+01
1.31343570e+01
1.24441882e+01
1.20035875e+01
1.13448012e+01
1.07470705e+01
1.12507873e+01
1.18147256e+01
1.18772534e+01
9.61608749e+00
1.00886464e+01
1.06208563e+01
1.06521250e+01
1.07469505e+01
1.01510934e+01
9.55290780e+00
1.00567573e+01
1.06209998e+01
1.00888674e+01
9.61613314e+00
9.55256595e+00
9.55278987e+00
1.00568320e+01
1.06210182e+01
1.05894257e+01
1.06210182e+01
1.00568320e+01
7.79301684e+00
8.17232907e+00
8.61060565e+00
8.64286132e+00
8.73581495e+00
8.23808580e+00
8.73550093e+00
9.14614440e+00
9.61563463e+00
9.67965137e+00
9.80397301e+00
9.24328727e+00
9.80367833e+00
1.02454850e+01
1.07466288e+01
1.08420372e+01
1.09977965e+01
1.03741806e+01
1.23174693e+01
1.21300196e+01
1.20035795e+01
1.26644596e+01
1.33858355e+01
1.28216137e+01
1.09979860e+01
1.08419240e+01
1.07469141e+01
1.13450375e+01
1.20035115e+01
1.14707302e+01
1.45793538e+01
1.53343380e+01
1.61503422e+01
1.54922405e+01
1.48940681e+01
1.47048240e+01
1.75323456e+01
1.83817568e+01
1.92917344e+01
1.85387757e+01
1.78470588e+01
1.76582387e+01
1.65278669e+01
1.56801851e+01
1.48940261e+01
1.54920112e+01
1.61502081e+01
1.63071937e+01
1.61501418e+01
1.68109605e+01
1.75323456e+01
1.76582387e+01
1.78470588e+01
1.69679794e+01
1.23169684e+01
1.28215121e+01
1.33856269e+01
1.35439024e+01
1.37624973e+01
1.30130090e+01
1.33859012e+01
1.41095419e+01
1.48938417e+01
1.42981798e+01
1.37626743e+01
1.35438058e+01
1.61501785e+01
1.69679955e+01
1.78469714e+01
1.71571279e+01
1.65280625e+01
1.63070334e+01
1.37621781e+01
1.42980698e+01
1.48936368e+01
1.50833258e+01
1.53334586e+01
1.45210413e+01
1.53331688e+01
1.59001897e+01
1.65274981e+01
1.67483601e+01
1.70302114e+01
1.61548591e+01
1.88519853e+01
1.85400890e+01
1.82870225e+01
1.91992144e+01
2.01713896e+01
1.94849416e+01
1.70303880e+01
1.67482311e+01
1.65278053e+01
1.73771704e+01
1.82873396e+01
1.76283093e+01
1.53336516e+01
1.50831923e+01
1.48939280e+01
1.56804116e+01
1.65276945e+01
1.59003177e+01
2.11772114e+01
2.03925741e+01
1.96694596e+01
1.94487863e+01
1.92918008e+01
2.02044002e+01
2.11771133e+01
2.13663777e+01
2.16168369e+01
2.06127067e+01
1.96692871e+01
2.03928005e+01
2.28104048e+01
2.38170864e+01
2.48833390e+01
2.40085833e+01
2.31872753e+01
2.29686803e+01
2.16163541e+01
2.08672480e+01
2.01718040e+01
1.98899528e+01
1.96690907e+01
2.06125787e+01
2.31869561e+01
2.23750229e+01
2.16166439e+01
2.13665111e+01
2.11768222e+01
2.21520515e+01
2.28106792e+01
2.29685837e+01
2.31874523e+01
2.21521615e+01
2.11770270e+01
2.19635236e+01
1.92919348e+01
2.00467270e+01
2.08625391e+01
2.09880093e+01
2.11772534e+01
2.02046294e+01
1.75323113e+01
1.82559692e+01
1.90403028e+01
1.91348127e+01
1.92918446e+01
1.83817140e+01
2.45696724e+01
2.56077967e+01
2.67054486e+01
2.57679095e+01
2.48836674e+01
2.46964897e+01
2.08626228e+01
2.18064357e+01
2.28107718e+01
2.19632626e+01
2.11771193e+01
2.09880377e+01
2.08627592e+01
2.16804050e+01
2.25589671e+01
2.26528864e+01
2.28108163e+01
2.18066611e+01
1.73437710e+01
1.65278198e+01
1.57730300e+01
1.64963319e+01
1.72809442e+01
1.72808387e+01
1.58986530e+01
1.51144249e+01
1.43907252e+01
1.50513216e+01
1.57729793e+01
1.58044471e+01
1.31341892e+01
1.38264234e+01
1.45795739e+01
1.39526795e+01
1.33860383e+01
1.32281085e+01
1.31341963e+01
1.37320578e+01
1.43907027e+01
1.44535363e+01
1.45795139e+01
1.38264406e+01
1.58986866e+01
1.65907063e+01
1.73438297e+01
1.74067740e+01
1.75322950e+01
1.66851461e+01
1.89145528e+01
1.97323083e+01
2.06110561e+01
2.06110190e+01
2.06738963e+01
1.97636776e+01
1.45794389e+01
1.44536924e+01
1.43907111e+01
1.51144264e+01
1.58986994e+01
1.52085421e+01
1.31343075e+01
1.30399491e+01
1.30083687e+01
1.36693403e+01
1.43906717e+01
1.37320136e+01
1.90402659e+01
1.81614731e+01
1.73438085e+01
1.80986331e+01
1.89146080e+01
1.89460362e+01
1.43907110e+01
1.43278337e+01
1.43278708e+01
1.50199193e+01
1.57729601e+01
1.50512887e+01
1.75322950e+01
1.74067740e+01
1.73438297e+01
1.81615026e+01
1.90402792e+01
1.82559424e+01
1.58986733e+01
1.58044436e+01
1.57730153e+01
1.65278367e+01
1.73438085e+01
1.65906767e+01
2.25590855e+01
2.15859953e+01
2.06738570e+01
2.15233219e+01
2.24331467e+01
2.24647271e+01
1.90402457e+01
1.89460398e+01
1.89145720e+01
1.97637106e+01
2.06739105e+01
1.98268138e+01
2.24331090e+01
2.33455327e+01
2.43181170e+01
2.33455327e+01
2.24331090e+01
2.24018592e+01
2.86532343e+01
2.75242446e+01
2.64545921e+01
2.65500005e+01
2.67057597e+01
2.76529402e+01
2.06110050e+01
2.14916936e+01
2.24331893e+01
2.15233237e+01
2.06738491e+01
2.06110517e+01
2.43180674e+01
2.52934711e+01
2.63288108e+01
2.53247941e+01
2.43812263e+01
2.43181900e+01
2.06738880e+01
2.15860394e+01
2.25589742e+01
2.16804223e+01
2.08626992e+01
2.07367216e+01
2.43810962e+01
2.53879542e+01
2.64550337e+01
2.54819682e+01
2.45699581e+01
2.44436240e+01
2.24331250e+01
2.33768425e+01
2.43810831e+01
2.34397624e+01
2.25591350e+01
2.24646006e+01
2.64548773e+01
2.65498873e+01
2.67059493e+01
2.56078971e+01
2.45698821e+01
2.54822044e+01
2.63287863e+01
2.63600071e+01
2.64550729e+01
2.53881881e+01
2.43812266e+01
2.53247530e+01
2.84655585e+01
2.84020624e+01
2.84025798e+01
2.94723382e+01
3.06019544e+01
2.95034788e+01
2.25590300e+01
2.35342901e+01
2.45700663e+01
2.36597790e+01
2.28106849e+01
2.26529311e+01
2.25591637e+01
2.34397352e+01
2.43810503e+01
2.44435569e+01
2.45701066e+01
2.35345199e+01
2.84654852e+01
2.85290839e+01
2.86537326e+01
2.75243378e+01
2.64548075e+01
2.74300460e+01
3.29257581e+01
3.18000307e+01
3.07269635e+01
3.06340099e+01
3.06017542e+01
3.17342740e+01
2.86535289e+01
2.85292073e+01
2.84651906e+01
2.95664966e+01
3.07266495e+01
2.96636395e+01
2.63289631e+01
2.73355169e+01
2.84024637e+01
2.84021219e+01
2.84656891e+01
2.73676270e+01
2.43180346e+01
2.52934252e+01
2.63289248e+01
2.62976400e+01
2.63289248e+01
2.52934252e+01
2.08626992e+01
2.16804223e+01
2.25589742e+01
2.15860394e+01
2.06738880e+01
2.07367216e+01
2.84654099e+01
2.95036509e+01
3.06019661e+01
3.06340312e+01
3.07271380e+01
2.95665945e+01
3.06019700e+01
3.17343847e+01
3.29262413e+01
3.28642486e+01
3.28642571e+01
3.17034985e+01
3.52509362e+01
3.40623264e+01
3.29261295e+01
3.28644203e+01
3.28638579e+01
3.40277718e+01
3.06019700e+01
3.17034985e+01
3.28642571e+01
3.28642486e+01
3.29262413e+01
3.17343847e+01
3.06020018e+01
2.94725755e+01
2.84027238e+01
2.94725755e+01
3.06020018e+01
3.05695074e+01
3.52513463e+01
3.52216553e+01
3.52513463e+01
3.40280513e+01
3.28639862e+01
3.40280513e+01
3.07269635e+01
3.18000307e+01
3.29257581e+01
3.17342740e+01
3.06017542e+01
3.06340099e+01
2.84654099e+01
2.95665945e+01
3.07271380e+01
3.06340312e+01
3.06019661e+01
2.95036509e+01
2.63289814e+01
2.62973890e+01
2.63289814e+01
2.73355916e+01
2.84023458e+01
2.73355916e+01
2.43180975e+01
2.33454959e+01
2.24330930e+01
2.33767995e+01
2.43811933e+01
2.43182986e+01
3.06019311e+01
3.05696425e+01
3.06019311e+01
3.17030294e+01
3.28643333e+01
3.17030294e+01
2.84024637e+01
2.73355169e+01
2.63289631e+01
2.73676270e+01
2.84656891e+01
2.84021219e+01
2.64549138e+01
2.74298530e+01
2.84656434e+01
2.73674060e+01
2.63288196e+01
2.63600883e+01
2.63288108e+01
2.52934711e+01
2.43180674e+01
2.43181900e+01
2.43812263e+01
2.53247941e+01
2.84025798e+01
2.84020624e+01
2.84655585e+01
2.95034788e+01
3.06019544e+01
2.94723382e+01
2.63287863e+01
2.53247530e+01
2.43812266e+01
2.53881881e+01
2.64550729e+01
2.63600071e+01
3.07266495e+01
2.95664966e+01
2.84651906e+01
2.85292073e+01
2.86535289e+01
2.96636395e+01
2.45699581e+01
2.54819682e+01
2.64550337e+01
2.53879542e+01
2.43810962e+01
2.44436240e+01
2.86537326e+01
2.85290839e+01
2.84654852e+01
2.74300460e+01
2.64548075e+01
2.75243378e+01
2.06738964e+01
1.98268154e+01
1.90402920e+01
1.99209311e+01
2.08626242e+01
2.07368777e+01
2.48836674e+01
2.57679095e+01
2.67054486e+01
2.56077967e+01
2.45696724e+01
2.46964897e+01
1.78469714e+01
1.87279243e+01
1.96696551e+01
1.94486260e+01
1.92917712e+01
1.85387918e+01
2.31872753e+01
2.40085833e+01
2.48833390e+01
2.38170864e+01
2.28104048e+01
2.29686803e+01
2.25589671e+01
2.16804050e+01
2.08627592e+01
2.18066611e+01
2.28108163e+01
2.26528864e+01
1.90403226e+01
1.91346369e+01
1.92919126e+01
2.00467026e+01
2.08625103e+01
1.99209792e+01
2.25590300e+01
2.26529311e+01
2.28106849e+01
2.36597790e+01
2.45700663e+01
2.35342901e+01
2.08626228e+01
2.09880377e+01
2.11771193e+01
2.19632626e+01
2.28107718e+01
2.18064357e+01
2.43810503e+01
2.34397352e+01
2.25591637e+01
2.35345199e+01
2.45701066e+01
2.44435569e+01
2.43810831e+01
2.33768425e+01
2.24331250e+01
2.24646006e+01
2.25591350e+01
2.34397624e+01
1.89145815e+01
1.80671202e+01
1.72809552e+01
1.80671202e+01
1.89145815e+01
1.88830547e+01
1.89146227e+01
1.80986161e+01
1.73437710e+01
1.72808387e+01
1.72809442e+01
1.80671282e+01
1.57730300e+01
1.65278198e+01
1.73437710e+01
1.72808387e+01
1.72809442e+01
1.64963319e+01
1.90402457e+01
1.98268138e+01
2.06739105e+01
1.97637106e+01
1.89145720e+01
1.89460398e+01
1.89146080e+01
1.80986331e+01
1.73438085e+01
1.81614731e+01
1.90402659e+01
1.89460362e+01
1.89146227e+01
1.80671282e+01
1.72809442e+01
1.72808387e+01
1.73437710e+01
1.80986161e+01
1.78470588e+01
1.76582387e+01
1.75323456e+01
1.68109605e+01
1.61501418e+01
1.69679794e+01
1.92918446e+01
1.91348127e+01
1.90403028e+01
1.82559692e+01
1.75323113e+01
1.83817140e+01
2.24331467e+01
2.15233219e+01
2.06738570e+01
2.15859953e+01
2.25590855e+01
2.24647271e+01
2.24331893e+01
2.14916936e+01
2.06110050e+01
2.06110517e+01
2.06738491e+01
2.15233237e+01
1.31341963e+01
1.38264406e+01
1.45795139e+01
1.44535363e+01
1.43907027e+01
1.37320578e+01
1.31342521e+01
1.25387159e+01
1.20036957e+01
1.26642047e+01
1.33859069e+01
1.32281532e+01
1.37624973e+01
1.35439024e+01
1.33856269e+01
1.28215121e+01
1.23169684e+01
1.30130090e+01
1.45795739e+01
1.38264234e+01
1.31341892e+01
1.32281085e+01
1.33860383e+01
1.39526795e+01
1.73438297e+01
1.65907063e+01
1.58986866e+01
1.66851461e+01
1.75322950e+01
1.74067740e+01
1.73438085e+01
1.65278367e+01
1.57730153e+01
1.58044436e+01
1.58986733e+01
1.65906767e+01
1.45793538e+01
1.47048240e+01
1.48940681e+01
1.54922405e+01
1.61503422e+01
1.53343380e+01
1.37621781e+01
1.45210413e+01
1.53334586e+01
1.50833258e+01
1.48936368e+01
1.42980698e+01
1.82873396e+01
1.91991056e+01
2.01719807e+01
1.98898238e+01
1.96693980e+01
1.89479668e+01
1.61501785e+01
1.63070334e+01
1.65280625e+01
1.71571279e+01
1.78469714e+01
1.69679955e+01
1.48939280e+01
1.50831923e+01
1.53336516e+01
1.59003177e+01
1.65276945e+01
1.56804116e+01
2.01718040e+01
2.08672480e+01
2.16163541e+01
2.06125787e+01
1.96690907e+01
1.98899528e+01
1.75323456e+01
1.76582387e+01
1.78470588e+01
1.85387757e+01
1.92917344e+01
1.83817568e+01
1.96692871e+01
2.06127067e+01
2.16168369e+01
2.13663777e+01
2.11771133e+01
2.03928005e+01
1.65280360e+01
1.73771345e+01
1.82875188e+01
1.80348189e+01
1.78468461e+01
1.71568799e+01
1.82870225e+01
1.76284181e+01
1.70297969e+01
1.79141453e+01
1.88519853e+01
1.85400890e+01
1.78468461e+01
1.80348189e+01
1.82875188e+01
1.89479308e+01
1.96696287e+01
1.87276762e+01
1.65278053e+01
1.67482311e+01
1.70303880e+01
1.76283093e+01
1.82873396e+01
1.73771704e+01
1.88519853e+01
1.94849416e+01
2.01713896e+01
1.91992144e+01
1.82870225e+01
1.85400890e+01
 
