# vtk DataFile Version 3.0 
Date: 3/9/2016   Time: 10:28
ASCII 
DATASET UNSTRUCTURED_GRID 
 
POINTS 355 float 
0.650310 0.369943 0.000000 
0.743548 0.322659 0.000000 
0.798409 0.375924 0.000000 
0.755644 0.470602 0.000000 
0.669350 0.450466 0.000000 
0.615911 0.506337 0.000000 
0.669350 0.450466 0.000000 
0.755644 0.470602 0.000000 
0.775707 0.507059 0.000000 
0.738388 0.587470 0.000000 
0.637658 0.580728 0.000000 
0.909098 0.440774 0.000000 
1.000000 0.439374 0.000000 
1.000000 0.581918 0.000000 
0.897444 0.579247 0.000000 
0.864312 0.516710 0.000000 
0.357279 0.250936 0.000000 
0.406351 0.222458 0.000000 
0.479811 0.259466 0.000000 
0.477245 0.348130 0.000000 
0.403010 0.380548 0.000000 
0.347363 0.333996 0.000000 
0.773176 0.892848 0.000000 
0.874328 0.887472 0.000000 
0.894295 1.000000 0.000000 
0.752491 1.000000 0.000000 
0.000000 0.870327 0.000000 
0.091084 0.864385 0.000000 
0.139229 0.912727 0.000000 
0.132405 1.000000 0.000000 
0.000000 1.000000 0.000000 
0.603143 0.257171 0.000000 
0.667690 0.218757 0.000000 
0.746251 0.262549 0.000000 
0.743548 0.322659 0.000000 
0.650310 0.369943 0.000000 
0.610842 0.348219 0.000000 
0.417571 0.733609 0.000000 
0.490581 0.738458 0.000000 
0.514991 0.768469 0.000000 
0.499066 0.861970 0.000000 
0.406569 0.882293 0.000000 
0.372600 0.858034 0.000000 
0.363406 0.809422 0.000000 
0.930519 0.150271 0.000000 
1.000000 0.147447 0.000000 
1.000000 0.301894 0.000000 
0.900400 0.296540 0.000000 
0.871357 0.244426 0.000000 
0.775707 0.507059 0.000000 
0.864312 0.516710 0.000000 
0.897444 0.579247 0.000000 
0.859882 0.643617 0.000000 
0.766865 0.641194 0.000000 
0.738388 0.587470 0.000000 
0.495877 0.505151 0.000000 
0.532292 0.481455 0.000000 
0.615911 0.506337 0.000000 
0.637658 0.580728 0.000000 
0.605251 0.629744 0.000000 
0.526268 0.635756 0.000000 
0.481031 0.588321 0.000000 
0.253243 0.580870 0.000000 
0.348114 0.562951 0.000000 
0.389622 0.611653 0.000000 
0.375366 0.668405 0.000000 
0.272279 0.696074 0.000000 
0.235042 0.650245 0.000000 
0.264530 0.143499 0.000000 
0.353906 0.101882 0.000000 
0.410209 0.138345 0.000000 
0.406351 0.222458 0.000000 
0.357279 0.250936 0.000000 
0.273190 0.210912 0.000000 
0.139229 0.912727 0.000000 
0.227432 0.875537 0.000000 
0.276003 0.911283 0.000000 
0.281073 1.000000 0.000000 
0.132405 1.000000 0.000000 
0.479811 0.259466 0.000000 
0.539648 0.226352 0.000000 
0.603143 0.257171 0.000000 
0.610842 0.348219 0.000000 
0.533907 0.382460 0.000000 
0.477245 0.348130 0.000000 
0.637940 0.878228 0.000000 
0.652005 0.858520 0.000000 
0.738755 0.851009 0.000000 
0.773176 0.892848 0.000000 
0.752491 1.000000 0.000000 
0.659789 1.000000 0.000000 
0.000000 0.119017 0.000000 
0.110765 0.109700 0.000000 
0.139955 0.139020 0.000000 
0.123724 0.229662 0.000000 
0.000000 0.228033 0.000000 
0.229562 0.000000 0.000000 
0.351996 0.000000 0.000000 
0.353906 0.101882 0.000000 
0.264530 0.143499 0.000000 
0.232179 0.120963 0.000000 
0.746251 0.262549 0.000000 
0.798157 0.225408 0.000000 
0.871357 0.244426 0.000000 
0.900400 0.296540 0.000000 
0.858756 0.370659 0.000000 
0.798409 0.375924 0.000000 
0.743548 0.322659 0.000000 
0.879805 0.000000 0.000000 
1.000000 0.000000 0.000000 
1.000000 0.147447 0.000000 
0.930519 0.150271 0.000000 
0.869762 0.096170 0.000000 
0.139955 0.139020 0.000000 
0.232179 0.120963 0.000000 
0.264530 0.143499 0.000000 
0.273190 0.210912 0.000000 
0.215782 0.268555 0.000000 
0.145438 0.261063 0.000000 
0.123724 0.229662 0.000000 
0.798409 0.375924 0.000000 
0.858756 0.370659 0.000000 
0.909098 0.440774 0.000000 
0.864312 0.516710 0.000000 
0.775707 0.507059 0.000000 
0.755644 0.470602 0.000000 
0.389622 0.611653 0.000000 
0.481031 0.588321 0.000000 
0.526268 0.635756 0.000000 
0.490581 0.738458 0.000000 
0.417571 0.733609 0.000000 
0.375366 0.668405 0.000000 
0.215782 0.268555 0.000000 
0.273190 0.210912 0.000000 
0.357279 0.250936 0.000000 
0.347363 0.333996 0.000000 
0.259648 0.361314 0.000000 
0.533962 0.895707 0.000000 
0.637940 0.878228 0.000000 
0.659789 1.000000 0.000000 
0.525314 1.000000 0.000000 
0.258307 0.443800 0.000000 
0.362088 0.478917 0.000000 
0.348114 0.562951 0.000000 
0.253243 0.580870 0.000000 
0.215411 0.527440 0.000000 
0.616780 0.765780 0.000000 
0.647615 0.717372 0.000000 
0.732860 0.713334 0.000000 
0.769867 0.771332 0.000000 
0.738755 0.851009 0.000000 
0.652005 0.858520 0.000000 
0.000000 0.000000 0.000000 
0.119461 0.000000 0.000000 
0.110765 0.109700 0.000000 
0.000000 0.119017 0.000000 
0.788149 0.129879 0.000000 
0.869762 0.096170 0.000000 
0.930519 0.150271 0.000000 
0.871357 0.244426 0.000000 
0.798157 0.225408 0.000000 
0.668934 0.138720 0.000000 
0.741837 0.103217 0.000000 
0.788149 0.129879 0.000000 
0.798157 0.225408 0.000000 
0.746251 0.262549 0.000000 
0.667690 0.218757 0.000000 
0.406569 0.882293 0.000000 
0.499066 0.861970 0.000000 
0.533962 0.895707 0.000000 
0.525314 1.000000 0.000000 
0.410180 1.000000 0.000000 
0.859882 0.643617 0.000000 
0.897444 0.579247 0.000000 
1.000000 0.581918 0.000000 
1.000000 0.716790 0.000000 
0.894278 0.717601 0.000000 
0.480872 0.000000 0.000000 
0.609924 0.000000 0.000000 
0.609577 0.102935 0.000000 
0.538063 0.137944 0.000000 
0.480790 0.104840 0.000000 
0.000000 0.729221 0.000000 
0.115474 0.736771 0.000000 
0.130645 0.764938 0.000000 
0.091084 0.864385 0.000000 
0.000000 0.870327 0.000000 
0.272279 0.696074 0.000000 
0.375366 0.668405 0.000000 
0.417571 0.733609 0.000000 
0.363406 0.809422 0.000000 
0.265455 0.761261 0.000000 
0.862735 0.767962 0.000000 
0.894278 0.717601 0.000000 
1.000000 0.716790 0.000000 
1.000000 0.855110 0.000000 
0.897262 0.857359 0.000000 
0.362088 0.478917 0.000000 
0.392175 0.457871 0.000000 
0.495877 0.505151 0.000000 
0.481031 0.588321 0.000000 
0.389622 0.611653 0.000000 
0.348114 0.562951 0.000000 
0.130645 0.764938 0.000000 
0.225566 0.793044 0.000000 
0.227432 0.875537 0.000000 
0.139229 0.912727 0.000000 
0.091084 0.864385 0.000000 
0.533907 0.382460 0.000000 
0.610842 0.348219 0.000000 
0.650310 0.369943 0.000000 
0.669350 0.450466 0.000000 
0.615911 0.506337 0.000000 
0.532292 0.481455 0.000000 
0.000000 0.475231 0.000000 
0.105179 0.474934 0.000000 
0.138698 0.526177 0.000000 
0.103125 0.603168 0.000000 
0.000000 0.606161 0.000000 
0.138698 0.526177 0.000000 
0.215411 0.527440 0.000000 
0.253243 0.580870 0.000000 
0.235042 0.650245 0.000000 
0.143200 0.663737 0.000000 
0.103125 0.603168 0.000000 
0.000000 0.606161 0.000000 
0.103125 0.603168 0.000000 
0.143200 0.663737 0.000000 
0.115474 0.736771 0.000000 
0.000000 0.729221 0.000000 
0.000000 0.346638 0.000000 
0.107203 0.350447 0.000000 
0.136154 0.398084 0.000000 
0.105179 0.474934 0.000000 
0.000000 0.475231 0.000000 
0.769867 0.771332 0.000000 
0.862735 0.767962 0.000000 
0.897262 0.857359 0.000000 
0.874328 0.887472 0.000000 
0.773176 0.892848 0.000000 
0.738755 0.851009 0.000000 
0.526268 0.635756 0.000000 
0.605251 0.629744 0.000000 
0.647615 0.717372 0.000000 
0.616780 0.765780 0.000000 
0.514991 0.768469 0.000000 
0.490581 0.738458 0.000000 
0.514991 0.768469 0.000000 
0.616780 0.765780 0.000000 
0.652005 0.858520 0.000000 
0.637940 0.878228 0.000000 
0.533962 0.895707 0.000000 
0.499066 0.861970 0.000000 
0.410209 0.138345 0.000000 
0.480790 0.104840 0.000000 
0.538063 0.137944 0.000000 
0.539648 0.226352 0.000000 
0.479811 0.259466 0.000000 
0.406351 0.222458 0.000000 
0.119461 0.000000 0.000000 
0.229562 0.000000 0.000000 
0.232179 0.120963 0.000000 
0.139955 0.139020 0.000000 
0.110765 0.109700 0.000000 
0.605251 0.629744 0.000000 
0.637658 0.580728 0.000000 
0.738388 0.587470 0.000000 
0.766865 0.641194 0.000000 
0.732860 0.713334 0.000000 
0.647615 0.717372 0.000000 
0.766865 0.641194 0.000000 
0.859882 0.643617 0.000000 
0.894278 0.717601 0.000000 
0.862735 0.767962 0.000000 
0.769867 0.771332 0.000000 
0.732860 0.713334 0.000000 
0.738035 0.000000 0.000000 
0.879805 0.000000 0.000000 
0.869762 0.096170 0.000000 
0.788149 0.129879 0.000000 
0.741837 0.103217 0.000000 
0.403010 0.380548 0.000000 
0.477245 0.348130 0.000000 
0.533907 0.382460 0.000000 
0.532292 0.481455 0.000000 
0.495877 0.505151 0.000000 
0.392175 0.457871 0.000000 
0.000000 0.228033 0.000000 
0.123724 0.229662 0.000000 
0.145438 0.261063 0.000000 
0.107203 0.350447 0.000000 
0.000000 0.346638 0.000000 
0.225566 0.793044 0.000000 
0.265455 0.761261 0.000000 
0.363406 0.809422 0.000000 
0.372600 0.858034 0.000000 
0.276003 0.911283 0.000000 
0.227432 0.875537 0.000000 
0.900400 0.296540 0.000000 
1.000000 0.301894 0.000000 
1.000000 0.439374 0.000000 
0.909098 0.440774 0.000000 
0.858756 0.370659 0.000000 
0.351996 0.000000 0.000000 
0.480872 0.000000 0.000000 
0.480790 0.104840 0.000000 
0.410209 0.138345 0.000000 
0.353906 0.101882 0.000000 
0.609924 0.000000 0.000000 
0.738035 0.000000 0.000000 
0.741837 0.103217 0.000000 
0.668934 0.138720 0.000000 
0.609577 0.102935 0.000000 
0.538063 0.137944 0.000000 
0.609577 0.102935 0.000000 
0.668934 0.138720 0.000000 
0.667690 0.218757 0.000000 
0.603143 0.257171 0.000000 
0.539648 0.226352 0.000000 
0.276003 0.911283 0.000000 
0.372600 0.858034 0.000000 
0.406569 0.882293 0.000000 
0.410180 1.000000 0.000000 
0.281073 1.000000 0.000000 
0.136154 0.398084 0.000000 
0.241650 0.398925 0.000000 
0.258307 0.443800 0.000000 
0.215411 0.527440 0.000000 
0.138698 0.526177 0.000000 
0.105179 0.474934 0.000000 
0.874328 0.887472 0.000000 
0.897262 0.857359 0.000000 
1.000000 0.855110 0.000000 
1.000000 1.000000 0.000000 
0.894295 1.000000 0.000000 
0.241650 0.398925 0.000000 
0.259648 0.361314 0.000000 
0.347363 0.333996 0.000000 
0.403010 0.380548 0.000000 
0.392175 0.457871 0.000000 
0.362088 0.478917 0.000000 
0.258307 0.443800 0.000000 
0.143200 0.663737 0.000000 
0.235042 0.650245 0.000000 
0.272279 0.696074 0.000000 
0.265455 0.761261 0.000000 
0.225566 0.793044 0.000000 
0.130645 0.764938 0.000000 
0.115474 0.736771 0.000000 
0.145438 0.261063 0.000000 
0.215782 0.268555 0.000000 
0.259648 0.361314 0.000000 
0.241650 0.398925 0.000000 
0.136154 0.398084 0.000000 
0.107203 0.350447 0.000000 
CELLS 64 419 
 5 0 1 2 3 4  
 6 5 6 7 8 9 10  
 5 11 12 13 14 15  
 6 16 17 18 19 20 21  
 4 22 23 24 25  
 5 26 27 28 29 30  
 6 31 32 33 34 35 36  
 7 37 38 39 40 41 42 43  
 5 44 45 46 47 48  
 6 49 50 51 52 53 54  
 7 55 56 57 58 59 60 61  
 6 62 63 64 65 66 67  
 6 68 69 70 71 72 73  
 5 74 75 76 77 78  
 6 79 80 81 82 83 84  
 6 85 86 87 88 89 90  
 5 91 92 93 94 95  
 5 96 97 98 99 100  
 7 101 102 103 104 105 106 107  
 5 108 109 110 111 112  
 7 113 114 115 116 117 118 119  
 6 120 121 122 123 124 125  
 6 126 127 128 129 130 131  
 5 132 133 134 135 136  
 4 137 138 139 140  
 5 141 142 143 144 145  
 6 146 147 148 149 150 151  
 4 152 153 154 155  
 5 156 157 158 159 160  
 6 161 162 163 164 165 166  
 5 167 168 169 170 171  
 5 172 173 174 175 176  
 5 177 178 179 180 181  
 5 182 183 184 185 186  
 5 187 188 189 190 191  
 5 192 193 194 195 196  
 6 197 198 199 200 201 202  
 5 203 204 205 206 207  
 6 208 209 210 211 212 213  
 5 214 215 216 217 218  
 6 219 220 221 222 223 224  
 5 225 226 227 228 229  
 5 230 231 232 233 234  
 6 235 236 237 238 239 240  
 6 241 242 243 244 245 246  
 6 247 248 249 250 251 252  
 6 253 254 255 256 257 258  
 5 259 260 261 262 263  
 6 264 265 266 267 268 269  
 6 270 271 272 273 274 275  
 5 276 277 278 279 280  
 6 281 282 283 284 285 286  
 5 287 288 289 290 291  
 6 292 293 294 295 296 297  
 5 298 299 300 301 302  
 5 303 304 305 306 307  
 5 308 309 310 311 312  
 6 313 314 315 316 317 318  
 5 319 320 321 322 323  
 6 324 325 326 327 328 329  
 5 330 331 332 333 334  
 7 335 336 337 338 339 340 341  
 7 342 343 344 345 346 347 348  
 6 349 350 351 352 353 354  
 
CELL_TYPES 64
7
7
7
7
7
7
7
7
7
7
7
7
7
7
7
7
7
7
7
7
7
7
7
7
7
7
7
7
7
7
7
7
7
7
7
7
7
7
7
7
7
7
7
7
7
7
7
7
7
7
7
7
7
7
7
7
7
7
7
7
7
7
7
7
CELL_DATA 64
FIELD FieldData 1
material 1 64 int
1
1
1
1
1
1
1
1
1
1
1
1
1
1
1
1
1
1
1
1
1
1
1
1
1
1
1
1
1
1
1
1
1
1
1
1
1
1
1
1
1
1
1
1
1
1
1
1
1
1
1
1
1
1
1
1
1
1
1
1
1
1
1
1
POINT_DATA 355 SCALARS flux_g1 double 
LOOKUP_TABLE   default 
0.092246
0.040581
-0.007416
-0.023559
-0.013717
0.003707
-0.006172
-0.017117
-0.012849
-0.009021
-0.038283
-0.002133
0.000639
0.000979
0.002388
0.000735
0.506928
0.435728
0.368847
0.371720
0.466594
0.515512
-0.000019
-0.000007
0.000005
-0.000010
1.683483
0.756615
0.237843
-0.332011
0.657801
0.251384
0.188072
0.085803
0.040404
0.091416
0.181612
-0.083468
-0.029144
-0.013474
0.013508
0.013431
-0.028939
-0.095009
0.015593
0.003445
-0.011058
-0.011659
0.011075
-0.009870
-0.000227
0.002519
0.002321
0.003624
-0.004581
0.181927
0.108990
0.009550
-0.034381
-0.047052
-0.035024
0.062792
0.713534
0.468499
0.290915
0.150348
0.483551
0.709366
0.662838
0.513228
0.446502
0.438577
0.514431
0.636793
0.060936
-0.040929
-0.072975
0.034724
-0.167481
0.373291
0.310041
0.249548
0.189405
0.276640
0.368643
-0.000064
0.000638
0.000153
-0.000013
-0.000027
-0.000049
1.394716
1.022755
0.963250
0.977827
1.395512
0.720311
0.517270
0.514950
0.662626
0.720690
0.078553
0.052945
0.013212
-0.007618
-0.020677
-0.011258
0.037123
0.100301
0.045989
0.002855
0.015806
0.081422
0.939659
0.720212
0.677659
0.638478
0.756365
0.924736
0.974959
-0.014021
-0.013485
-0.005126
-0.000476
-0.010467
-0.022692
0.238951
0.072428
-0.019311
-0.061331
-0.107847
0.117849
0.767038
0.643979
0.516402
0.518936
0.673809
0.000558
-0.000020
-0.000041
-0.000310
0.682181
0.514232
0.491411
0.720334
0.770675
0.002431
0.001903
0.001247
0.000608
0.000019
0.001169
1.394743
1.003346
1.023780
1.396007
0.125541
0.076188
0.021297
0.009503
0.057605
0.218259
0.163073
0.127532
0.067268
0.084070
0.194617
0.001249
0.001102
0.000886
-0.000407
0.001888
0.000746
0.001696
0.000236
-0.000239
-0.000294
0.352186
0.248344
0.251554
0.303682
0.355142
1.388678
1.051097
0.957231
0.936759
1.563210
0.443418
0.133652
-0.082161
-0.118196
0.083771
0.000008
-0.000060
-0.000033
-0.000004
-0.000078
0.524586
0.463471
0.202835
0.082172
0.268844
0.487049
0.972010
0.300278
-0.083338
0.131331
0.858423
0.274247
0.166810
0.101345
-0.001056
-0.005165
0.126890
1.395754
1.042871
0.957591
1.035523
1.398561
0.934641
0.778249
0.710093
0.710691
0.983491
1.033719
1.391248
1.047483
0.964144
1.035392
1.388320
1.395299
1.037509
0.967931
1.033009
1.400232
0.000360
0.000036
-0.000101
-0.000045
-0.000040
0.000051
-0.035588
-0.024096
0.000224
0.004823
-0.001914
-0.051163
-0.004669
0.001895
0.001621
0.000742
-0.000508
0.009634
0.437779
0.354012
0.309070
0.309827
0.366320
0.430923
0.985433
0.734776
0.723841
0.943427
1.023027
-0.025056
-0.028150
-0.004239
0.001432
0.004752
0.004210
0.002339
0.000713
-0.000085
-0.000125
0.000008
0.002112
0.175607
0.103504
0.084613
0.125988
0.169581
0.471284
0.362149
0.275696
0.163391
0.205150
0.470349
1.393056
0.984890
0.940991
1.026595
1.399924
0.240422
0.078996
-0.089259
-0.055772
-0.083016
-0.108330
-0.012286
-0.006378
0.000986
-0.002785
-0.016008
0.507350
0.359489
0.358915
0.440080
0.513266
0.244305
0.174786
0.171188
0.214219
0.250564
0.307239
0.251151
0.214650
0.199648
0.250846
0.309602
-0.046945
-0.018072
0.000253
0.003070
0.025521
0.939167
0.707096
0.682793
0.763357
0.941894
1.036904
-0.000003
-0.000033
-0.000004
0.000003
0.000005
0.703008
0.658644
0.523989
0.465225
0.466835
0.515781
0.677585
0.993148
0.687034
0.501431
0.237401
0.338925
0.987182
1.073240
0.919583
0.767302
0.686662
0.698452
0.947113
1.031524
 
