# vtk DataFile Version 3.0 
Date: 3/9/2016   Time: 10:28
ASCII 
DATASET UNSTRUCTURED_GRID 
 
POINTS 82 float 
0.265006 0.539883 0.000000 
0.484488 0.535088 0.000000 
0.518115 0.569640 0.000000 
0.500469 0.749572 0.000000 
0.328866 0.836613 0.000000 
0.234672 0.742060 0.000000 
0.600137 0.000000 0.000000 
0.785344 0.000000 0.000000 
0.811643 0.241470 0.000000 
0.726027 0.305776 0.000000 
0.600796 0.270959 0.000000 
0.407025 0.000000 0.000000 
0.600137 0.000000 0.000000 
0.600796 0.270959 0.000000 
0.504618 0.311062 0.000000 
0.395635 0.256144 0.000000 
0.000000 0.261721 0.000000 
0.192656 0.243026 0.000000 
0.258708 0.291506 0.000000 
0.232869 0.504093 0.000000 
0.000000 0.502885 0.000000 
0.000000 0.777419 0.000000 
0.234672 0.742060 0.000000 
0.328866 0.836613 0.000000 
0.320938 1.000000 0.000000 
0.000000 1.000000 0.000000 
0.000000 0.000000 0.000000 
0.206929 0.000000 0.000000 
0.192656 0.243026 0.000000 
0.000000 0.261721 0.000000 
0.785344 0.000000 0.000000 
1.000000 0.000000 0.000000 
1.000000 0.261975 0.000000 
0.811643 0.241470 0.000000 
0.258708 0.291506 0.000000 
0.395635 0.256144 0.000000 
0.504618 0.311062 0.000000 
0.484488 0.535088 0.000000 
0.265006 0.539883 0.000000 
0.232869 0.504093 0.000000 
0.726027 0.305776 0.000000 
0.811643 0.241470 0.000000 
1.000000 0.261975 0.000000 
1.000000 0.498667 0.000000 
0.768333 0.505769 0.000000 
0.518115 0.569640 0.000000 
0.731146 0.554471 0.000000 
0.782561 0.745591 0.000000 
0.666164 0.867919 0.000000 
0.500469 0.749572 0.000000 
0.328866 0.836613 0.000000 
0.500469 0.749572 0.000000 
0.666164 0.867919 0.000000 
0.670810 1.000000 0.000000 
0.320938 1.000000 0.000000 
0.731146 0.554471 0.000000 
0.768333 0.505769 0.000000 
1.000000 0.498667 0.000000 
1.000000 0.778681 0.000000 
0.782561 0.745591 0.000000 
0.666164 0.867919 0.000000 
0.782561 0.745591 0.000000 
1.000000 0.778681 0.000000 
1.000000 1.000000 0.000000 
0.670810 1.000000 0.000000 
0.206929 0.000000 0.000000 
0.407025 0.000000 0.000000 
0.395635 0.256144 0.000000 
0.258708 0.291506 0.000000 
0.192656 0.243026 0.000000 
0.000000 0.502885 0.000000 
0.232869 0.504093 0.000000 
0.265006 0.539883 0.000000 
0.234672 0.742060 0.000000 
0.000000 0.777419 0.000000 
0.504618 0.311062 0.000000 
0.600796 0.270959 0.000000 
0.726027 0.305776 0.000000 
0.768333 0.505769 0.000000 
0.731146 0.554471 0.000000 
0.518115 0.569640 0.000000 
0.484488 0.535088 0.000000 
CELLS 16 98 
 6 0 1 2 3 4 5  
 5 6 7 8 9 10  
 5 11 12 13 14 15  
 5 16 17 18 19 20  
 5 21 22 23 24 25  
 4 26 27 28 29  
 4 30 31 32 33  
 6 34 35 36 37 38 39  
 5 40 41 42 43 44  
 5 45 46 47 48 49  
 5 50 51 52 53 54  
 5 55 56 57 58 59  
 5 60 61 62 63 64  
 5 65 66 67 68 69  
 5 70 71 72 73 74  
 7 75 76 77 78 79 80 81  
 
CELL_TYPES 16
7
7
7
7
7
7
7
7
7
7
7
7
7
7
7
7
CELL_DATA 16
FIELD FieldData 1
material 1 16 int
1
1
1
1
1
1
1
1
1
1
1
1
1
1
1
1
POINT_DATA 82 SCALARS flux_g1 double 
LOOKUP_TABLE   default 
0.637648
0.126665
0.146267
-0.092379
0.038030
0.384362
0.255237
0.136625
0.069474
0.059173
0.209370
0.424261
0.260009
0.224989
0.328033
0.458972
1.357317
0.788217
0.718887
0.701204
1.363801
1.516930
0.324619
0.111830
-0.304453
0.459090
1.363437
0.778950
0.793555
1.364463
0.131330
0.042930
-0.006719
0.048086
0.699127
0.447520
0.342599
0.171775
0.657979
0.710366
0.075299
0.030687
0.000254
-0.017135
-0.015593
0.079350
-0.017777
-0.043496
-0.032400
-0.089053
-0.016186
-0.052805
-0.037600
0.037821
-0.115342
-0.029675
-0.015545
-0.010366
0.007797
-0.024423
-0.016960
-0.003823
0.004760
-0.002808
0.016962
0.740370
0.439241
0.462545
0.695335
0.777554
1.371034
0.712348
0.702041
0.472078
1.475950
0.310646
0.165110
0.075963
0.004351
-0.032908
0.082123
0.143176
 
