# vtk DataFile Version 3.0 
Date: 3/9/2016   Time: 10:28
ASCII 
DATASET UNSTRUCTURED_GRID 
 
POINTS 1473 float 
0.122977 0.893246 0.000000 
0.169562 0.892641 0.000000 
0.184707 0.933361 0.000000 
0.135865 0.958952 0.000000 
0.107521 0.930532 0.000000 
0.330870 0.944935 0.000000 
0.367838 0.929539 0.000000 
0.394438 0.945411 0.000000 
0.393899 1.000000 0.000000 
0.330705 1.000000 0.000000 
0.508744 0.326634 0.000000 
0.537037 0.325083 0.000000 
0.565059 0.364686 0.000000 
0.553383 0.394463 0.000000 
0.514737 0.401761 0.000000 
0.489012 0.372862 0.000000 
0.727811 0.070363 0.000000 
0.772702 0.057942 0.000000 
0.793472 0.071009 0.000000 
0.794715 0.114373 0.000000 
0.762269 0.133538 0.000000 
0.726380 0.111680 0.000000 
0.000000 0.693660 0.000000 
0.044876 0.694212 0.000000 
0.067515 0.728566 0.000000 
0.054642 0.757502 0.000000 
0.000000 0.759509 0.000000 
0.928783 0.411648 0.000000 
0.943335 0.380897 0.000000 
1.000000 0.380942 0.000000 
1.000000 0.442636 0.000000 
0.945530 0.443624 0.000000 
0.719269 0.000000 0.000000 
0.771953 0.000000 0.000000 
0.772702 0.057942 0.000000 
0.727811 0.070363 0.000000 
0.715977 0.060043 0.000000 
0.932536 0.538027 0.000000 
0.948530 0.507000 0.000000 
1.000000 0.505878 0.000000 
1.000000 0.571306 0.000000 
0.951942 0.571191 0.000000 
0.460605 0.446615 0.000000 
0.501238 0.439821 0.000000 
0.526171 0.469359 0.000000 
0.512336 0.507253 0.000000 
0.475736 0.514393 0.000000 
0.448395 0.483259 0.000000 
0.111630 0.181741 0.000000 
0.136484 0.169093 0.000000 
0.170657 0.189975 0.000000 
0.165182 0.236166 0.000000 
0.124688 0.245295 0.000000 
0.103871 0.225656 0.000000 
0.258947 0.000000 0.000000 
0.314673 0.000000 0.000000 
0.318028 0.061696 0.000000 
0.297421 0.073032 0.000000 
0.256907 0.058938 0.000000 
0.000000 0.260338 0.000000 
0.050294 0.256161 0.000000 
0.071980 0.296556 0.000000 
0.060065 0.321169 0.000000 
0.000000 0.319745 0.000000 
0.267647 0.943923 0.000000 
0.304071 0.928795 0.000000 
0.330870 0.944935 0.000000 
0.330705 1.000000 0.000000 
0.265788 1.000000 0.000000 
0.531239 0.789704 0.000000 
0.565435 0.780364 0.000000 
0.595287 0.807588 0.000000 
0.580792 0.853394 0.000000 
0.553760 0.861215 0.000000 
0.519945 0.822496 0.000000 
0.886180 0.476899 0.000000 
0.930495 0.474459 0.000000 
0.948530 0.507000 0.000000 
0.932536 0.538027 0.000000 
0.891523 0.540744 0.000000 
0.871703 0.509629 0.000000 
0.129739 0.734962 0.000000 
0.169873 0.715697 0.000000 
0.204390 0.740300 0.000000 
0.191246 0.786002 0.000000 
0.176964 0.791561 0.000000 
0.131059 0.764725 0.000000 
0.200563 0.941150 0.000000 
0.237892 0.925739 0.000000 
0.267647 0.943923 0.000000 
0.265788 1.000000 0.000000 
0.206004 1.000000 0.000000 
0.000000 0.630186 0.000000 
0.058306 0.631068 0.000000 
0.068980 0.655734 0.000000 
0.044876 0.694212 0.000000 
0.000000 0.693660 0.000000 
0.760200 0.425398 0.000000 
0.803689 0.421484 0.000000 
0.823342 0.449185 0.000000 
0.809110 0.487484 0.000000 
0.768154 0.491830 0.000000 
0.746996 0.465828 0.000000 
0.313559 0.278285 0.000000 
0.349467 0.267095 0.000000 
0.378326 0.297032 0.000000 
0.366563 0.335646 0.000000 
0.330606 0.341251 0.000000 
0.304222 0.314970 0.000000 
0.469020 0.071213 0.000000 
0.496066 0.057874 0.000000 
0.529878 0.071944 0.000000 
0.529544 0.120421 0.000000 
0.494226 0.135656 0.000000 
0.467170 0.117631 0.000000 
0.425262 0.247664 0.000000 
0.456469 0.234814 0.000000 
0.492378 0.260569 0.000000 
0.484565 0.301716 0.000000 
0.441569 0.311362 0.000000 
0.416904 0.287029 0.000000 
0.692580 0.131255 0.000000 
0.726380 0.111680 0.000000 
0.762269 0.133538 0.000000 
0.760959 0.168094 0.000000 
0.728756 0.190270 0.000000 
0.693430 0.170557 0.000000 
0.392892 0.424907 0.000000 
0.438603 0.419848 0.000000 
0.460605 0.446615 0.000000 
0.448395 0.483259 0.000000 
0.409148 0.492412 0.000000 
0.382145 0.460867 0.000000 
0.626937 0.693148 0.000000 
0.668278 0.684449 0.000000 
0.691924 0.712226 0.000000 
0.681846 0.749689 0.000000 
0.640563 0.757711 0.000000 
0.615907 0.731857 0.000000 
0.831095 0.825108 0.000000 
0.868614 0.825056 0.000000 
0.887789 0.859296 0.000000 
0.871800 0.887966 0.000000 
0.822632 0.889310 0.000000 
0.808163 0.869524 0.000000 
0.394438 0.945411 0.000000 
0.429531 0.930783 0.000000 
0.458377 0.948596 0.000000 
0.456411 1.000000 0.000000 
0.393899 1.000000 0.000000 
0.705386 0.471083 0.000000 
0.746996 0.465828 0.000000 
0.768154 0.491830 0.000000 
0.754219 0.531674 0.000000 
0.716316 0.537877 0.000000 
0.691291 0.507899 0.000000 
0.525900 0.198588 0.000000 
0.559349 0.181421 0.000000 
0.589619 0.197269 0.000000 
0.594326 0.234811 0.000000 
0.556509 0.262961 0.000000 
0.524955 0.246179 0.000000 
0.556509 0.262961 0.000000 
0.594326 0.234811 0.000000 
0.627910 0.251232 0.000000 
0.630113 0.299338 0.000000 
0.614183 0.310724 0.000000 
0.561909 0.292322 0.000000 
0.367659 0.709670 0.000000 
0.402923 0.674711 0.000000 
0.416442 0.674598 0.000000 
0.443868 0.702566 0.000000 
0.434874 0.743968 0.000000 
0.394482 0.756056 0.000000 
0.371078 0.739844 0.000000 
0.857810 0.069078 0.000000 
0.888262 0.050890 0.000000 
0.931411 0.071479 0.000000 
0.928936 0.098816 0.000000 
0.884752 0.123395 0.000000 
0.861499 0.111170 0.000000 
0.398307 0.182063 0.000000 
0.420876 0.167932 0.000000 
0.463764 0.194045 0.000000 
0.456469 0.234814 0.000000 
0.425262 0.247664 0.000000 
0.391764 0.222283 0.000000 
0.220313 0.504456 0.000000 
0.263112 0.490440 0.000000 
0.290540 0.516787 0.000000 
0.282685 0.554261 0.000000 
0.246798 0.567346 0.000000 
0.214697 0.541920 0.000000 
0.064880 0.508842 0.000000 
0.075919 0.482484 0.000000 
0.124637 0.472323 0.000000 
0.147316 0.496354 0.000000 
0.142776 0.531289 0.000000 
0.117136 0.546161 0.000000 
0.071937 0.528498 0.000000 
0.652942 0.514028 0.000000 
0.691291 0.507899 0.000000 
0.716316 0.537877 0.000000 
0.702721 0.574626 0.000000 
0.665894 0.582673 0.000000 
0.639461 0.553207 0.000000 
0.412549 0.065997 0.000000 
0.436183 0.055303 0.000000 
0.469020 0.071213 0.000000 
0.467170 0.117631 0.000000 
0.425925 0.132656 0.000000 
0.404155 0.111163 0.000000 
0.000000 0.000000 0.000000 
0.066350 0.000000 0.000000 
0.066996 0.051431 0.000000 
0.049860 0.064704 0.000000 
0.000000 0.058433 0.000000 
0.539210 0.537410 0.000000 
0.575572 0.531377 0.000000 
0.601297 0.560353 0.000000 
0.588413 0.599040 0.000000 
0.549396 0.606293 0.000000 
0.523602 0.578013 0.000000 
0.111038 0.667902 0.000000 
0.132193 0.654665 0.000000 
0.173778 0.675700 0.000000 
0.169873 0.715697 0.000000 
0.129739 0.734962 0.000000 
0.109485 0.720089 0.000000 
0.642547 0.445523 0.000000 
0.682010 0.439942 0.000000 
0.705386 0.471083 0.000000 
0.691291 0.507899 0.000000 
0.652942 0.514028 0.000000 
0.628708 0.486407 0.000000 
0.135865 0.958952 0.000000 
0.184707 0.933361 0.000000 
0.200563 0.941150 0.000000 
0.206004 1.000000 0.000000 
0.133801 1.000000 0.000000 
0.707286 0.950754 0.000000 
0.750682 0.928014 0.000000 
0.769229 0.941246 0.000000 
0.769597 1.000000 0.000000 
0.708120 1.000000 0.000000 
0.521815 0.954948 0.000000 
0.562492 0.930283 0.000000 
0.582119 0.936699 0.000000 
0.586470 1.000000 0.000000 
0.523130 1.000000 0.000000 
0.000000 0.449963 0.000000 
0.055815 0.445024 0.000000 
0.075919 0.482484 0.000000 
0.064880 0.508842 0.000000 
0.000000 0.504928 0.000000 
0.322966 0.403849 0.000000 
0.376808 0.402737 0.000000 
0.392892 0.424907 0.000000 
0.382145 0.460867 0.000000 
0.340252 0.471972 0.000000 
0.312601 0.439478 0.000000 
0.693791 0.248802 0.000000 
0.730314 0.223822 0.000000 
0.761737 0.242909 0.000000 
0.761833 0.287055 0.000000 
0.742455 0.300756 0.000000 
0.697376 0.280226 0.000000 
0.378326 0.297032 0.000000 
0.416904 0.287029 0.000000 
0.441569 0.311362 0.000000 
0.431739 0.353903 0.000000 
0.388631 0.360181 0.000000 
0.366563 0.335646 0.000000 
0.426879 0.559111 0.000000 
0.461666 0.551598 0.000000 
0.490221 0.582886 0.000000 
0.471186 0.625808 0.000000 
0.444106 0.628321 0.000000 
0.412819 0.594496 0.000000 
0.358703 0.235711 0.000000 
0.391764 0.222283 0.000000 
0.425262 0.247664 0.000000 
0.416904 0.287029 0.000000 
0.378326 0.297032 0.000000 
0.349467 0.267095 0.000000 
0.891523 0.540744 0.000000 
0.932536 0.538027 0.000000 
0.951942 0.571191 0.000000 
0.931883 0.605783 0.000000 
0.897114 0.603774 0.000000 
0.876889 0.572587 0.000000 
0.631464 0.377639 0.000000 
0.672352 0.369583 0.000000 
0.695815 0.407244 0.000000 
0.682010 0.439942 0.000000 
0.642547 0.445523 0.000000 
0.619481 0.419552 0.000000 
0.497069 0.653678 0.000000 
0.536846 0.646175 0.000000 
0.562076 0.673701 0.000000 
0.550628 0.712559 0.000000 
0.511569 0.721683 0.000000 
0.485528 0.693708 0.000000 
0.815331 0.696223 0.000000 
0.860449 0.690017 0.000000 
0.880592 0.729717 0.000000 
0.866750 0.756510 0.000000 
0.824457 0.760834 0.000000 
0.802265 0.728054 0.000000 
0.657603 0.069394 0.000000 
0.665980 0.061595 0.000000 
0.715977 0.060043 0.000000 
0.727811 0.070363 0.000000 
0.726380 0.111680 0.000000 
0.692580 0.131255 0.000000 
0.659845 0.113051 0.000000 
0.452498 0.376564 0.000000 
0.489012 0.372862 0.000000 
0.514737 0.401761 0.000000 
0.501238 0.439821 0.000000 
0.460605 0.446615 0.000000 
0.438603 0.419848 0.000000 
0.330606 0.341251 0.000000 
0.366563 0.335646 0.000000 
0.388631 0.360181 0.000000 
0.376808 0.402737 0.000000 
0.322966 0.403849 0.000000 
0.313767 0.388150 0.000000 
0.823342 0.449185 0.000000 
0.867460 0.445920 0.000000 
0.886180 0.476899 0.000000 
0.871703 0.509629 0.000000 
0.829344 0.513478 0.000000 
0.809110 0.487484 0.000000 
0.679769 0.890287 0.000000 
0.707863 0.876754 0.000000 
0.747222 0.900234 0.000000 
0.750682 0.928014 0.000000 
0.707286 0.950754 0.000000 
0.675291 0.930276 0.000000 
0.302299 0.698906 0.000000 
0.325729 0.686844 0.000000 
0.367659 0.709670 0.000000 
0.371078 0.739844 0.000000 
0.327338 0.763012 0.000000 
0.296169 0.741573 0.000000 
0.592268 0.071827 0.000000 
0.610066 0.059665 0.000000 
0.657603 0.069394 0.000000 
0.659845 0.113051 0.000000 
0.623728 0.134772 0.000000 
0.593307 0.118294 0.000000 
0.514737 0.401761 0.000000 
[...]
CELL_DATA 256
FIELD FieldData 1
material 1 256 int
1
1
1
1
1
1
1
1
1
1
1
1
1
1
1
1
1
1
1
1
1
1
1
1
1
1
1
1
1
1
1
1
1
1
1
1
1
1
1
1
1
1
1
1
1
1
1
1
1
1
1
1
1
1
1
1
1
1
1
1
1
1
1
1
1
1
1
1
1
1
1
1
1
1
1
1
1
1
1
1
1
1
1
1
1
1
1
1
1
1
1
1
1
1
1
1
1
1
1
1
1
1
1
1
1
1
1
1
1
1
1
1
1
1
1
1
1
1
1
1
1
1
1
1
1
1
1
1
1
1
1
1
1
1
1
1
1
1
1
1
1
1
1
1
1
1
1
1
1
1
1
1
1
1
1
1
1
1
1
1
1
1
1
1
1
1
1
1
1
1
1
1
1
1
1
1
1
1
1
1
1
1
1
1
1
1
1
1
1
1
1
1
1
1
1
1
1
1
1
1
1
1
1
1
1
1
1
1
1
1
1
1
1
1
1
1
1
1
1
1
1
1
1
1
1
1
1
1
1
1
1
1
1
1
1
1
1
1
1
1
1
1
1
1
1
1
1
1
1
1
1
1
1
1
1
1
POINT_DATA 1473 SCALARS flux_g1 double 
LOOKUP_TABLE   default 
0.574725
-0.012013
-0.245781
-0.273451
0.092678
-0.000580
-0.000403
-0.000184
0.000122
-0.000262
0.330941
0.323755
0.327120
0.335017
0.383920
0.363748
0.175058
0.159501
0.157142
0.167197
0.179432
0.181122
1.409084
1.244363
1.170775
1.205657
1.411860
0.000562
0.001353
-0.000010
-0.000350
-0.000715
0.176191
0.153224
0.157624
0.175554
0.176966
-0.000007
-0.000026
0.000006
0.000014
0.000034
0.451747
0.382210
0.278145
0.215107
0.352671
0.469774
1.026039
0.954285
0.871018
0.880079
0.991366
1.048522
0.671458
0.574121
0.568282
0.601662
0.674232
1.408177
1.225018
1.157807
1.187449
1.409291
0.006128
0.002659
-0.000433
-0.000574
-0.001589
-0.000264
-0.000202
-0.000077
0.000011
0.000027
-0.000325
-0.000282
-0.000162
-0.000049
-0.000010
-0.000095
-0.000275
0.939461
0.889579
0.902321
0.974513
1.057659
1.019719
-0.011892
-0.000296
0.007530
-0.000790
0.017408
1.408459
1.196190
1.162159
1.240114
1.411049
-0.012769
-0.003038
0.002930
0.004394
0.004992
-0.005391
0.573186
0.517901
0.480202
0.495877
0.547633
0.588132
0.368562
0.339627
0.310446
0.310156
0.343360
0.368744
0.419120
0.383372
0.344590
0.346672
0.396572
0.430205
0.197629
0.183206
0.178781
0.186774
0.200836
0.209332
0.440295
0.418769
0.431843
0.468738
0.504252
0.462329
0.000207
-0.000096
-0.000189
-0.000088
-0.000117
-0.000435
0.000000
-0.000000
-0.000000
-0.000000
-0.000000
-0.000000
-0.000117
-0.000021
0.000047
-0.000002
0.000099
-0.019301
-0.005728
0.003143
0.005715
0.006404
-0.008771
0.312008
0.281456
0.260190
0.258503
0.287842
0.307454
0.286425
0.261333
0.256129
0.272073
0.281309
0.299344
-0.070145
-0.068657
-0.070332
-0.044479
-0.017830
-0.037237
-0.110984
0.139139
0.123856
0.077103
0.057305
0.081928
0.121474
0.450497
0.420583
0.375791
0.383509
0.419663
0.457388
0.754144
0.665888
0.606068
0.600695
0.684222
0.766393
1.171230
1.132360
0.989124
0.933568
0.936416
1.013273
1.146032
-0.025045
-0.009216
0.004259
0.006609
0.007334
-0.011100
0.431566
0.402632
0.369813
0.369958
0.418059
0.442048
1.406482
1.171256
1.171001
1.223152
1.411028
-0.024754
-0.039948
-0.034667
-0.018460
-0.038342
-0.064849
1.027233
0.955193
0.849162
0.865314
0.949898
1.019505
-0.022549
-0.028917
-0.022833
-0.012474
-0.026395
-0.045622
-0.170643
-0.084391
-0.020907
0.022062
0.026865
-0.000000
-0.000000
-0.000000
0.000000
-0.000000
-0.000007
-0.000004
-0.000002
0.000001
-0.000000
1.407188
1.206405
1.145804
1.170049
1.409233
0.560839
0.473413
0.451487
0.460723
0.514833
0.578814
0.223295
0.190157
0.122195
0.054632
0.068504
0.189629
0.478911
0.429873
0.399219
0.402723
0.463741
0.497850
0.416704
0.250463
0.009114
-0.084095
-0.022641
0.320207
0.503651
0.458560
0.420344
0.429357
0.479244
0.516662
-0.000101
-0.000015
0.000032
0.000025
0.000037
-0.000021
0.159215
0.076621
-0.021834
-0.044928
-0.018831
0.096616
-0.037564
-0.014398
0.004054
0.008377
0.007844
-0.013728
0.000027
0.000005
-0.000007
-0.000003
-0.000008
0.000008
0.213730
0.202181
0.179558
0.177140
0.181322
0.197646
0.208949
0.380524
0.368181
0.373307
0.395614
0.445321
0.411702
0.548086
0.497259
0.466335
0.473912
0.562849
0.578481
0.003546
0.001443
-0.000143
-0.000538
-0.000300
0.002877
-0.000000
0.000000
0.000000
-0.000000
-0.000000
0.000000
0.516237
0.321969
-0.038804
-0.135699
-0.111432
0.166883
0.259988
0.244568
0.214506
0.210881
0.235007
0.257434
0.388775
0.322123
0.215825
0.156119
0.281541
0.393003
0.059479
0.035912
-0.012000
-0.017074
-0.029206
-0.022290
0.005993
-0.031266
-0.023497
-0.014943
-0.007068
-0.020992
-0.034282
-0.071927
-0.028771
-0.003466
0.015221
0.015919
-0.002189
0.382486
0.504737
0.313860
-0.000798
-0.079100
-0.072569
0.860781
0.802296
0.720088
0.725369
0.782889
0.862575
0.078085
0.060633
0.019077
-0.014643
-0.001476
0.053803
1.158130
1.086318
1.070935
1.231804
1.381310
1.295191
0.517067
0.458678
0.345600
0.278747
0.435811
0.553040
0.000001
0.000000
-0.000000
0.000000
0.000000
-0.000001
0.945015
0.863995
0.784424
0.789587
0.869315
0.951832
-0.030336
-0.011362
0.004789
0.007292
0.007664
-0.012683
1.410099
1.253670
1.182563
1.221940
1.409650
-0.001553
0.001644
0.001952
0.001398
0.003694
0.000236
0.000000
0.000000
0.000000
-0.000000
-0.000000
-0.000000
-0.000000
0.000006
0.000012
-0.000005
-0.000004
-0.000003
-0.000010
1.411854
1.206987
1.134300
1.199182
1.410998
0.002829
0.000586
-0.000481
-0.000499
-0.000606
0.001611
-0.000016
-0.000179
-0.000148
-0.000055
-0.000096
-0.000445
-0.014889
-0.002177
0.003737
0.004457
0.002799
0.015336
-0.000252
-0.000167
-0.000060
0.000060
0.000147
-0.000289
-0.000160
-0.000045
0.000030
0.000026
0.000037
-0.000037
1.425762
1.346431
0.919505
0.188400
-0.049622
0.712107
0.526730
0.478000
0.433207
0.441917
0.500046
0.000026
-0.000126
-0.000156
-0.000083
-0.000139
-0.000319
-0.039059
-0.015048
0.004437
0.008586
0.008192
-0.012208
0.000011
-0.000018
-0.000006
0.000002
-0.000001
-0.000002
-0.000002
0.006315
0.003648
0.000022
-0.000772
-0.000887
0.004425
0.968109
0.860870
0.805214
0.808279
0.930064
0.986693
0.116145
0.091871
0.032137
-0.009639
-0.021755
0.001071
0.076978
0.000024
0.000005
-0.000006
-0.000004
0.000014
1.160342
1.031806
0.975218
0.986099
1.139248
1.206347
1.408819
1.231621
1.162081
1.193486
1.409453
0.256937
0.232235
0.224992
0.239607
0.255756
0.257723
-0.000000
-0.000000
0.000000
0.000000
-0.000000
0.000027
0.000014
-0.000000
-0.000006
0.000012
0.000026
0.843996
0.764578
0.688464
0.683104
0.772301
0.854537
0.643884
0.605110
0.527513
0.520669
0.556752
0.598906
0.649295
0.339858
0.308798
0.289721
0.292729
0.318508
0.330450
0.345022
0.000039
0.000014
-0.000007
-0.000003
-0.000010
-0.024709
-0.033589
-0.028190
-0.015924
-0.032893
-0.053240
-0.000001
-0.000000
0.000000
0.000000
0.000001
0.780715
0.703380
0.659768
0.666406
0.697316
0.793445
0.398896
0.340509
0.341054
0.368597
0.402881
-0.002582
-0.009870
-0.011168
-0.016614
-0.012374
-0.007643
-0.000391
0.003151
0.002997
0.004320
-0.002477
0.827595
0.733668
0.693220
0.702362
0.782460
0.836557
0.944556
0.838810
0.784330
0.797159
0.845394
0.959581
0.233300
0.209917
0.198605
0.207381
0.223772
0.229956
0.000000
0.000000
-0.000000
-0.000000
-0.000000
0.335865
0.258630
0.168708
0.103609
0.215207
0.328810
-0.016508
-0.007618
0.000073
-0.007074
-0.015863
1.409315
1.206785
1.179203
1.153247
1.251035
1.410622
0.656159
0.633721
0.517553
0.433329
0.622710
0.753765
-0.000003
-0.000003
-0.000000
-0.000003
-0.000006
-0.000000
-0.000000
0.000000
0.000000
0.000000
-0.000052
-0.000021
0.000026
0.000016
0.000019
0.000039
-0.000028
-0.022755
-0.018484
-0.010217
-0.003764
-0.012169
-0.032473
1.535461
1.424180
1.345377
0.814323
0.276687
1.507465
-0.000000
-0.000000
0.000000
0.000000
0.000000
-0.000000
0.959420
0.852344
0.776981
0.776406
0.845845
0.955633
1.160663
1.019070
0.966602
0.959023
1.044693
1.108999
1.208878
0.986536
0.897298
0.468262
0.052414
0.272221
0.999361
0.689583
0.624057
0.576827
0.589187
0.658633
0.701378
-0.000117
-0.000030
0.000027
0.000025
-0.000001
0.005896
0.003436
0.000668
-0.000667
-0.000481
0.005251
0.000000
0.000000
-0.000000
-0.000000
-0.000000
-0.000000
0.245689
0.212082
0.210607
0.213736
0.245398
0.393210
0.170638
-0.071411
-0.127263
-0.131428
-0.014852
0.571866
0.481194
0.478398
0.524502
0.566760
0.204025
0.095297
-0.003670
-0.054094
-0.019133
0.144752
-0.015223
-0.004922
0.001493
0.002916
-0.001291
-0.010915
0.988348
0.880413
0.832488
0.837621
0.948308
1.011097
0.005266
0.002711
0.000164
-0.000761
-0.000842
0.003947
1.253000
1.152906
1.029859
1.049023
1.178026
-0.101892
-0.062521
-0.023686
0.015880
0.012668
-0.053250
0.000018
0.000006
-0.000003
-0.000002
-0.000004
0.000009
0.000000
0.000000
0.000000
-0.000000
-0.000000
-0.000000
-0.000001
-0.000002
0.000000
0.000000
0.000001
0.756389
0.684390
0.705052
0.834249
0.789214
0.757737
0.075963
0.089882
0.012713
-0.012079
-0.038958
-0.035272
1.091568
0.926989
0.283462
-0.119564
0.110485
0.966420
0.339140
0.289102
0.289353
0.309460
0.340029
1.010733
0.937086
0.845971
0.854066
0.961678
1.020377
0.000001
0.000000
-0.000000
-0.000000
0.000000
-0.000179
-0.000198
-0.000152
-0.000015
0.000014
-0.000413
-0.029341
-0.047899
-0.040352
-0.019669
-0.041126
-0.077404
0.392925
0.347998
0.332735
0.360697
0.380233
0.400970
-0.004735
-0.006887
-0.000307
0.002497
0.002929
-0.000000
-0.000002
-0.000001
0.000000
0.000000
0.000000
0.726325
0.651125
0.599667
0.622556
0.691263
0.732030
1.159089
1.031671
1.022514
1.167167
1.244463
0.799327
0.705430
0.657239
0.665348
0.755179
0.807615
0.375224
0.346332
0.314455
0.309678
0.343639
0.383435
1.401453
1.202481
1.243023
1.380467
1.358671
0.261360
0.242986
0.217424
0.194340
0.205034
0.278911
1.408115
1.172921
1.152322
1.227585
1.410859
0.005922
0.003254
0.000374
-0.000616
-0.000347
0.004915
0.800527
0.674048
0.677623
0.717450
0.804176
0.000000
0.000000
-0.000000
-0.000000
0.000000
0.143431
0.115352
0.081739
0.033376
0.029723
0.099925
0.320843
0.302480
0.279327
0.274076
0.337528
1.225006
1.174391
1.050580
0.994467
1.010840
1.152571
-0.000128
-0.000033
0.000032
0.000024
0.000046
-0.000041
0.125574
0.100871
0.080524
0.076633
0.129215
1.410106
1.226577
1.207573
1.409800
1.223959
1.155054
1.033221
1.033759
1.172806
1.204661
-0.000050
-0.000015
0.000008
0.000005
0.000001
0.000011
1.031268
0.962873
0.862971
0.866424
0.947646
1.031308
0.105345
0.063016
0.017488
0.071963
0.005915
0.003117
-0.000184
-0.000662
-0.000556
0.004332
0.584134
0.541757
0.424846
0.352134
0.533352
0.646519
0.212771
0.178528
0.177283
0.206515
0.030316
0.021456
-0.008247
-0.014985
-0.019341
-0.018613
0.832046
0.775737
0.793526
0.907538
0.916811
0.864596
1.233049
1.153010
1.008355
1.030943
1.163819
1.189003
1.145943
1.013360
0.951306
0.963265
1.007451
1.152205
-0.036897
-0.013470
0.004826
0.007636
0.006659
0.004391
-0.041221
-0.058268
-0.043543
-0.019526
-0.043435
-0.083868
0.657454
0.589581
0.548797
0.576156
0.661126
0.120499
0.076433
0.006373
-0.016947
0.037312
0.596047
0.384820
-0.060916
-0.051563
0.336953
0.184674
0.167106
0.139819
0.105617
0.118764
0.191026
-0.000198
-0.000404
-0.000095
0.000048
0.000009
1.194008
1.152244
1.022750
0.963470
0.962309
1.031165
1.157998
0.000000
-0.000000
-0.000000
0.000000
0.000000
0.000000
0.136703
0.122654
0.126584
0.136976
0.147049
1.005444
0.962449
0.845958
0.860624
0.971727
1.029692
1.408276
1.190297
1.159508
1.230307
1.411276
0.180641
0.026124
-0.095072
-0.074024
-0.087396
-0.147032
0.603038
0.564804
0.527182
0.502505
0.525979
0.605478
0.416174
0.369521
0.344296
0.346210
0.375193
0.419443
0.000008
0.000003
-0.000000
-0.000001
-0.000001
0.000001
-0.034963
-0.013248
0.004387
0.007944
0.007603
-0.013508
0.291955
0.271448
0.200202
0.114237
0.080415
0.167342
0.269845
-0.096997
-0.074939
-0.044090
0.001102
-0.008573
-0.102862
0.226295
0.210894
0.199823
0.197325
0.220393
0.243152
0.843012
0.795158
0.697802
0.705312
0.802268
0.859016
-0.000000
-0.000004
-0.000001
0.000001
0.000000
0.000001
0.959562
0.803687
0.807953
0.860193
0.963674
0.205366
0.182687
0.068771
0.009330
0.101019
-0.000023
0.000004
0.000001
-0.000014
0.000047
0.002671
0.000887
-0.000083
-0.000513
-0.000432
-0.000780
0.527259
0.498662
0.443170
0.419175
0.421087
0.452089
0.517750
0.081981
0.053312
0.004566
-0.012107
0.024323
0.718675
0.672900
0.603818
0.610094
0.644650
0.721853
1.669363
0.488335
-0.331294
0.554995
0.507542
0.471303
0.494279
0.545352
0.562871
0.521069
-0.000001
-0.000000
0.000000
0.000000
-0.000000
0.459584
0.403532
0.385037
0.408636
0.441019
0.472383
0.287979
0.246342
0.246772
0.259403
0.288198
1.379428
1.414998
1.466045
0.600927
1.685211
-0.000130
-0.000037
0.000015
0.000020
0.000019
0.000001
0.667397
0.603306
0.623919
0.723348
0.706178
0.665819
0.586942
0.531382
0.556927
0.627610
0.624942
0.589020
0.000075
-0.000137
-0.000172
-0.000028
0.000002
-0.000511
0.006215
0.003568
0.000547
-0.000801
-0.000912
0.005094
0.302400
1.032669
0.125709
-0.221967
-0.005850
-0.309555
-0.022340
-0.010740
-0.003593
0.000167
-0.007571
-0.022678
0.286345
0.257264
0.236025
0.231670
0.258686
0.281384
0.781703
0.722901
0.645559
0.651217
0.728021
0.787673
0.000000
0.000000
-0.000000
-0.000000
1.172556
1.032419
0.949463
0.954113
1.028181
1.150255
0.339212
0.194040
0.006307
-0.073855
-0.013899
0.257867
0.004575
0.002619
0.000235
-0.000726
-0.001102
0.002832
0.309675
0.287904
0.260174
0.258384
0.286940
0.309447
0.205549
0.187115
0.117337
0.084297
0.124078
0.196537
-0.000348
-0.000224
-0.000055
-0.000036
-0.000092
-0.000246
0.754006
0.736659
0.598613
0.411087
0.567867
0.903573
0.860190
0.873635
0.543143
0.233523
0.474764
0.955969
1.409359
1.234049
1.168767
1.202878
1.408786
-0.086199
0.038367
-0.058339
-0.079362
-0.022103
-0.009547
-0.224148
0.518556
0.452351
0.458905
0.506067
0.557821
-0.000004
-0.000001
0.000001
0.000000
0.000001
-0.000001
0.004263
0.002158
0.000351
-0.000640
-0.000548
0.003734
0.002100
0.001266
0.000074
0.001615
0.002170
-0.002784
-0.013758
-0.018130
-0.014017
-0.022667
-0.017834
0.002281
0.003614
0.003226
-0.000243
-0.002602
0.011295
0.000027
0.000007
-0.000005
-0.000003
-0.000006
0.000008
-0.015697
-0.015276
-0.013887
-0.009300
-0.006330
-0.018332
0.654635
0.577182
0.523125
0.524954
0.599582
0.668068
0.151547
0.136043
0.146153
0.157755
0.156944
0.343171
0.310054
0.287532
0.282853
0.313940
0.345888
1.230791
1.147327
1.014537
1.022273
1.157311
0.478569
0.400722
0.404164
0.432073
0.477860
-0.000093
-0.000175
-0.000046
0.000014
0.000037
-0.000480
0.270258
0.142392
-0.000637
-0.063117
-0.014305
0.199717
-0.000000
-0.000000
0.000000
-0.000000
0.926010
0.809610
0.756854
0.763554
0.844599
0.934765
1.166450
0.964513
0.966963
1.026551
1.160775
1.046152
1.044769
1.034830
1.013462
1.334046
0.867360
0.789154
0.730170
0.733057
0.829506
0.878956
0.596668
0.558536
0.507024
0.517103
0.575803
0.622560
0.160105
0.146965
0.135763
0.123080
0.142384
0.169373
0.696011
0.661007
0.578240
0.564797
0.577748
0.656289
0.703356
 
