# vtk DataFile Version 3.0 
Date: 3/9/2016   Time: 10:29
ASCII 
DATASET UNSTRUCTURED_GRID 
 
POINTS 6022 float 
0.859118 0.555137 0.000000 
0.877604 0.553708 0.000000 
0.888913 0.571328 0.000000 
0.879393 0.588149 0.000000 
0.861705 0.589065 0.000000 
0.850258 0.572911 0.000000 
0.352958 0.770832 0.000000 
0.375015 0.762617 0.000000 
0.387978 0.785271 0.000000 
0.369330 0.799878 0.000000 
0.351629 0.790433 0.000000 
0.848772 0.155125 0.000000 
0.861614 0.137034 0.000000 
0.876928 0.137762 0.000000 
0.887681 0.157715 0.000000 
0.876210 0.173898 0.000000 
0.859874 0.173493 0.000000 
0.292069 0.463160 0.000000 
0.314525 0.460369 0.000000 
0.324056 0.477915 0.000000 
0.309020 0.494784 0.000000 
0.290562 0.487814 0.000000 
0.787572 0.369535 0.000000 
0.798060 0.365808 0.000000 
0.818103 0.378990 0.000000 
0.817783 0.396164 0.000000 
0.796963 0.403880 0.000000 
0.781251 0.390122 0.000000 
0.582813 0.940413 0.000000 
0.605184 0.944334 0.000000 
0.610234 0.965342 0.000000 
0.590952 0.975523 0.000000 
0.573258 0.964126 0.000000 
0.059614 0.911841 0.000000 
0.077291 0.917238 0.000000 
0.078623 0.940574 0.000000 
0.059025 0.947654 0.000000 
0.043430 0.932111 0.000000 
0.651199 0.869030 0.000000 
0.661954 0.855023 0.000000 
0.684447 0.857818 0.000000 
0.690298 0.874956 0.000000 
0.679501 0.889584 0.000000 
0.656629 0.884770 0.000000 
0.000000 0.405667 0.000000 
0.025945 0.405555 0.000000 
0.034862 0.420903 0.000000 
0.026374 0.437317 0.000000 
0.000000 0.437489 0.000000 
0.642907 0.745789 0.000000 
0.653118 0.730404 0.000000 
0.672795 0.730854 0.000000 
0.681204 0.741006 0.000000 
0.672689 0.764285 0.000000 
0.651533 0.763564 0.000000 
0.867315 0.916496 0.000000 
0.884246 0.904767 0.000000 
0.901784 0.913858 0.000000 
0.899753 0.936491 0.000000 
0.884332 0.944141 0.000000 
0.868446 0.935527 0.000000 
0.472126 0.380954 0.000000 
0.487548 0.371193 0.000000 
0.505863 0.380578 0.000000 
0.507823 0.394519 0.000000 
0.490654 0.411332 0.000000 
0.472166 0.402118 0.000000 
0.652913 0.129974 0.000000 
0.662655 0.117559 0.000000 
0.679766 0.117685 0.000000 
0.689987 0.134398 0.000000 
0.676550 0.154540 0.000000 
0.659937 0.151267 0.000000 
0.611916 0.489043 0.000000 
0.629539 0.482482 0.000000 
0.637038 0.486265 0.000000 
0.643999 0.510900 0.000000 
0.638038 0.519587 0.000000 
0.617166 0.521639 0.000000 
0.607246 0.507986 0.000000 
0.234879 0.314684 0.000000 
0.249643 0.306885 0.000000 
0.267829 0.317831 0.000000 
0.265908 0.337793 0.000000 
0.249741 0.345642 0.000000 
0.233017 0.334687 0.000000 
0.774343 0.815365 0.000000 
0.793015 0.814117 0.000000 
0.803523 0.827533 0.000000 
0.796765 0.847282 0.000000 
0.775825 0.849363 0.000000 
0.765226 0.837770 0.000000 
0.300991 0.146833 0.000000 
0.316866 0.136999 0.000000 
0.334787 0.147433 0.000000 
0.334429 0.166365 0.000000 
0.317957 0.175875 0.000000 
0.300611 0.165640 0.000000 
0.904825 0.192806 0.000000 
0.915130 0.176553 0.000000 
0.934901 0.176922 0.000000 
0.943697 0.192277 0.000000 
0.934412 0.210386 0.000000 
0.914807 0.210214 0.000000 
0.361850 0.505832 0.000000 
0.377335 0.499360 0.000000 
0.394659 0.515629 0.000000 
0.389467 0.533697 0.000000 
0.369409 0.538784 0.000000 
0.359567 0.529216 0.000000 
0.539477 0.092555 0.000000 
0.556343 0.083248 0.000000 
0.572402 0.092613 0.000000 
0.571950 0.113827 0.000000 
0.557988 0.122636 0.000000 
0.539004 0.112197 0.000000 
0.317605 0.233770 0.000000 
0.334061 0.224585 0.000000 
0.351071 0.234699 0.000000 
0.350537 0.254496 0.000000 
0.334271 0.263458 0.000000 
0.316783 0.253112 0.000000 
0.265644 0.602141 0.000000 
0.284382 0.594568 0.000000 
0.300379 0.609320 0.000000 
0.296069 0.626582 0.000000 
0.279100 0.633192 0.000000 
0.262189 0.618087 0.000000 
0.557988 0.122636 0.000000 
0.571950 0.113827 0.000000 
0.592755 0.123283 0.000000 
0.592280 0.142743 0.000000 
0.575168 0.152640 0.000000 
0.557246 0.141278 0.000000 
0.088328 0.595953 0.000000 
0.097361 0.581602 0.000000 
0.118898 0.582702 0.000000 
0.126716 0.601575 0.000000 
0.118390 0.614915 0.000000 
0.095703 0.613733 0.000000 
0.156625 0.884974 0.000000 
0.172295 0.876043 0.000000 
0.189474 0.884070 0.000000 
0.189604 0.905610 0.000000 
0.173137 0.914641 0.000000 
0.158445 0.907144 0.000000 
0.089717 0.468585 0.000000 
0.096506 0.455028 0.000000 
0.119022 0.452456 0.000000 
0.129242 0.470807 0.000000 
0.122257 0.485102 0.000000 
0.098688 0.486375 0.000000 
0.333696 0.322490 0.000000 
0.349973 0.313770 0.000000 
0.366909 0.323635 0.000000 
0.366514 0.343871 0.000000 
0.349431 0.353052 0.000000 
0.332667 0.342426 0.000000 
0.796713 0.725430 0.000000 
0.815829 0.724159 0.000000 
0.827034 0.740378 0.000000 
0.817941 0.758573 0.000000 
0.799513 0.759851 0.000000 
0.787833 0.744413 0.000000 
0.483892 0.949976 0.000000 
0.499451 0.938856 0.000000 
0.515410 0.944761 0.000000 
0.518231 0.965753 0.000000 
0.499928 0.975969 0.000000 
0.483488 0.965997 0.000000 
0.834945 0.607795 0.000000 
0.852416 0.606802 0.000000 
0.863200 0.622697 0.000000 
0.848916 0.643316 0.000000 
0.825900 0.633323 0.000000 
0.964914 0.472056 0.000000 
0.973315 0.456992 0.000000 
1.000000 0.456917 0.000000 
1.000000 0.489155 0.000000 
0.973662 0.489288 0.000000 
0.387407 0.412693 0.000000 
0.402385 0.394283 0.000000 
0.425027 0.406414 0.000000 
0.421935 0.425872 0.000000 
0.403837 0.431235 0.000000 
0.215628 0.176472 0.000000 
0.235898 0.166467 0.000000 
0.249911 0.174802 0.000000 
0.250176 0.193045 0.000000 
0.230765 0.204326 0.000000 
0.214035 0.188972 0.000000 
0.530880 0.461492 0.000000 
0.548432 0.452987 0.000000 
0.561339 0.459874 0.000000 
0.564089 0.483960 0.000000 
0.544908 0.492785 0.000000 
0.529024 0.480188 0.000000 
0.434529 0.437087 0.000000 
0.455202 0.430694 0.000000 
0.468495 0.442330 0.000000 
0.460200 0.464976 0.000000 
0.442663 0.468518 0.000000 
0.431239 0.456938 0.000000 
0.823802 0.825369 0.000000 
0.832022 0.809485 0.000000 
0.850375 0.807941 0.000000 
0.861694 0.823167 0.000000 
0.852733 0.843232 0.000000 
0.835876 0.845045 0.000000 
0.302756 0.698665 0.000000 
0.314673 0.697412 0.000000 
0.328523 0.710828 0.000000 
0.325616 0.728732 0.000000 
0.307018 0.737015 0.000000 
0.291008 0.727164 0.000000 
0.289349 0.717438 0.000000 
0.832242 0.574375 0.000000 
0.850258 0.572911 0.000000 
0.861705 0.589065 0.000000 
0.852416 0.606802 0.000000 
0.834945 0.607795 0.000000 
0.823578 0.595762 0.000000 
0.572402 0.092613 0.000000 
0.590188 0.083732 0.000000 
0.602444 0.090907 0.000000 
0.604199 0.115078 0.000000 
0.592755 0.123283 0.000000 
0.571950 0.113827 0.000000 
0.747571 0.101681 0.000000 
0.766191 0.101259 0.000000 
0.776236 0.119195 0.000000 
0.766273 0.135829 0.000000 
0.746746 0.135601 0.000000 
0.737333 0.119315 0.000000 
0.379268 0.571353 0.000000 
0.398491 0.565645 0.000000 
0.412665 0.580099 0.000000 
0.407842 0.598097 0.000000 
0.389064 0.603480 0.000000 
0.374814 0.589412 0.000000 
0.000000 0.437489 0.000000 
0.026374 0.437317 0.000000 
0.035065 0.453557 0.000000 
0.027366 0.468813 0.000000 
0.000000 0.469085 0.000000 
0.195968 0.540461 0.000000 
0.219100 0.530728 0.000000 
0.234462 0.547155 0.000000 
0.232997 0.557842 0.000000 
0.213745 0.569140 0.000000 
0.193091 0.552733 0.000000 
0.488631 0.000000 0.000000 
0.522841 0.000000 0.000000 
0.522806 0.024259 0.000000 
0.505758 0.034264 0.000000 
0.488586 0.024071 0.000000 
0.000000 0.531064 0.000000 
0.027947 0.531148 0.000000 
0.035480 0.546864 0.000000 
0.027578 0.562225 0.000000 
0.000000 0.562061 0.000000 
0.563043 0.587414 0.000000 
0.583752 0.585114 0.000000 
0.593844 0.604380 0.000000 
0.577255 0.620891 0.000000 
0.557930 0.610942 0.000000 
0.314525 0.460369 0.000000 
0.322129 0.444705 0.000000 
0.340142 0.442307 0.000000 
0.351548 0.468940 0.000000 
0.341611 0.480751 0.000000 
0.324056 0.477915 0.000000 
0.707701 0.168065 0.000000 
0.716492 0.152458 0.000000 
0.736997 0.152633 0.000000 
0.746472 0.169606 0.000000 
0.737041 0.185513 0.000000 
0.716431 0.186236 0.000000 
0.844339 0.704832 0.000000 
0.853256 0.688667 0.000000 
0.874230 0.687917 0.000000 
0.883818 0.705291 0.000000 
0.875160 0.721311 0.000000 
0.855039 0.722250 0.000000 
0.000000 0.782504 0.000000 
0.027368 0.783211 0.000000 
0.034735 0.797681 0.000000 
0.025872 0.814438 0.000000 
0.000000 0.813955 0.000000 
0.367445 0.264381 0.000000 
0.384141 0.255218 0.000000 
0.400577 0.264763 0.000000 
0.400516 0.284942 0.000000 
0.383777 0.294210 0.000000 
0.367011 0.284552 0.000000 
0.451001 0.502333 0.000000 
0.470964 0.495979 0.000000 
0.485031 0.510676 0.000000 
0.481370 0.527404 0.000000 
0.460764 0.533598 0.000000 
0.446856 0.519056 0.000000 
0.056412 0.213162 0.000000 
0.065626 0.197358 0.000000 
0.087515 0.198024 0.000000 
0.095259 0.213967 0.000000 
0.084875 0.231121 0.000000 
0.065464 0.230532 0.000000 
0.087759 0.165023 0.000000 
0.096259 0.150210 0.000000 
0.116702 0.149409 0.000000 
0.127285 0.168181 0.000000 
0.119173 0.182630 0.000000 
0.096325 0.182524 0.000000 
0.064222 0.813849 0.000000 
0.086261 0.815572 0.000000 
0.092624 0.830708 0.000000 
0.082266 0.847863 0.000000 
0.062069 0.845445 0.000000 
0.054522 0.830744 0.000000 
0.863993 0.064813 0.000000 
0.877173 0.059597 0.000000 
0.890761 0.066429 0.000000 
0.895080 0.086263 0.000000 
0.878764 0.100641 0.000000 
0.864816 0.098505 0.000000 
0.857335 0.087153 0.000000 
0.965234 0.160161 0.000000 
0.974056 0.144871 0.000000 
1.000000 0.145094 0.000000 
1.000000 0.176448 0.000000 
0.973555 0.176336 0.000000 
0.343686 0.972693 0.000000 
0.356524 0.964869 0.000000 
0.374318 0.972940 0.000000 
0.374195 1.000000 0.000000 
0.343630 1.000000 0.000000 
0.369409 0.538784 0.000000 
0.389467 0.533697 0.000000 
0.403166 0.547985 0.000000 
0.398491 0.565645 0.000000 
0.379268 0.571353 0.000000 
0.365652 0.557848 0.000000 
0.580460 0.552861 0.000000 
0.586788 0.540839 0.000000 
0.609819 0.538458 0.000000 
0.619888 0.555529 0.000000 
0.611820 0.570605 0.000000 
0.590850 0.572141 0.000000 
0.787339 0.942974 0.000000 
0.800364 0.934790 0.000000 
0.819339 0.944520 0.000000 
0.818737 0.965473 0.000000 
0.804551 0.973591 0.000000 
[...]
CELL_DATA 1024
FIELD FieldData 1
material 1 1024 int
1
1
1
1
1
1
1
1
1
1
1
1
1
1
1
1
1
1
1
1
1
1
1
1
1
1
1
1
1
1
1
1
1
1
1
1
1
1
1
1
1
1
1
1
1
1
1
1
1
1
1
1
1
1
1
1
1
1
1
1
1
1
1
1
1
1
1
1
1
1
1
1
1
1
1
1
1
1
1
1
1
1
1
1
1
1
1
1
1
1
1
1
1
1
1
1
1
1
1
1
1
1
1
1
1
1
1
1
1
1
1
1
1
1
1
1
1
1
1
1
1
1
1
1
1
1
1
1
1
1
1
1
1
1
1
1
1
1
1
1
1
1
1
1
1
1
1
1
1
1
1
1
1
1
1
1
1
1
1
1
1
1
1
1
1
1
1
1
1
1
1
1
1
1
1
1
1
1
1
1
1
1
1
1
1
1
1
1
1
1
1
1
1
1
1
1
1
1
1
1
1
1
1
1
1
1
1
1
1
1
1
1
1
1
1
1
1
1
1
1
1
1
1
1
1
1
1
1
1
1
1
1
1
1
1
1
1
1
1
1
1
1
1
1
1
1
1
1
1
1
1
1
1
1
1
1
1
1
1
1
1
1
1
1
1
1
1
1
1
1
1
1
1
1
1
1
1
1
1
1
1
1
1
1
1
1
1
1
1
1
1
1
1
1
1
1
1
1
1
1
1
1
1
1
1
1
1
1
1
1
1
1
1
1
1
1
1
1
1
1
1
1
1
1
1
1
1
1
1
1
1
1
1
1
1
1
1
1
1
1
1
1
1
1
1
1
1
1
1
1
1
1
1
1
1
1
1
1
1
1
1
1
1
1
1
1
1
1
1
1
1
1
1
1
1
1
1
1
1
1
1
1
1
1
1
1
1
1
1
1
1
1
1
1
1
1
1
1
1
1
1
1
1
1
1
1
1
1
1
1
1
1
1
1
1
1
1
1
1
1
1
1
1
1
1
1
1
1
1
1
1
1
1
1
1
1
1
1
1
1
1
1
1
1
1
1
1
1
1
1
1
1
1
1
1
1
1
1
1
1
1
1
1
1
1
1
1
1
1
1
1
1
1
1
1
1
1
1
1
1
1
1
1
1
1
1
1
1
1
1
1
1
1
1
1
1
1
1
1
1
1
1
1
1
1
1
1
1
1
1
1
1
1
1
1
1
1
1
1
1
1
1
1
1
1
1
1
1
1
1
1
1
1
1
1
1
1
1
1
1
1
1
1
1
1
1
1
1
1
1
1
1
1
1
1
1
1
1
1
1
1
1
1
1
1
1
1
1
1
1
1
1
1
1
1
1
1
1
1
1
1
1
1
1
1
1
1
1
1
1
1
1
1
1
1
1
1
1
1
1
1
1
1
1
1
1
1
1
1
1
1
1
1
1
1
1
1
1
1
1
1
1
1
1
1
1
1
1
1
1
1
1
1
1
1
1
1
1
1
1
1
1
1
1
1
1
1
1
1
1
1
1
1
1
1
1
1
1
1
1
1
1
1
1
1
1
1
1
1
1
1
1
1
1
1
1
1
1
1
1
1
1
1
1
1
1
1
1
1
1
1
1
1
1
1
1
1
1
1
1
1
1
1
1
1
1
1
1
1
1
1
1
1
1
1
1
1
1
1
1
1
1
1
1
1
1
1
1
1
1
1
1
1
1
1
1
1
1
1
1
1
1
1
1
1
1
1
1
1
1
1
1
1
1
1
1
1
1
1
1
1
1
1
1
1
1
1
1
1
1
1
1
1
1
1
1
1
1
1
1
1
1
1
1
1
1
1
1
1
1
1
1
1
1
1
1
1
1
1
1
1
1
1
1
1
1
1
1
1
1
1
1
1
1
1
1
1
1
1
1
1
1
1
1
1
1
1
1
1
1
1
1
1
1
1
1
1
1
1
1
1
1
1
1
1
1
1
1
1
1
1
1
1
1
1
1
1
1
1
1
1
1
1
1
1
1
1
1
1
1
1
1
1
1
1
1
1
1
1
1
1
1
1
1
1
1
1
1
1
1
1
1
1
1
1
1
1
1
1
1
1
1
1
1
1
1
1
1
1
1
1
1
1
1
1
1
1
1
1
1
1
1
1
1
1
1
1
1
1
1
1
1
1
1
1
1
1
1
1
1
1
1
1
1
1
1
1
1
1
1
1
1
1
1
1
1
1
1
1
1
1
1
1
1
1
1
1
1
1
1
1
1
1
1
1
1
1
1
1
1
1
1
1
1
1
1
1
1
1
1
1
1
1
1
1
1
1
1
1
1
1
1
1
1
1
1
1
1
1
1
1
1
1
1
1
1
1
1
1
1
1
1
1
1
POINT_DATA 6022 SCALARS flux_g1 double 
LOOKUP_TABLE   default 
0.000000
-0.000000
-0.000000
-0.000000
-0.000000
-0.000000
0.006169
0.003853
-0.001205
-0.001041
0.003652
0.057407
0.062174
0.038669
0.003612
0.000106
0.012800
0.613604
0.575951
0.561476
0.586268
0.615780
0.002426
0.002213
0.000598
-0.000234
0.000161
0.002274
0.000000
0.000000
-0.000000
-0.000000
0.000000
1.374837
0.736022
0.040416
0.388799
1.368413
0.000000
-0.000000
0.000000
0.000000
-0.000000
0.000000
1.412758
1.313052
1.281001
1.310555
1.413118
-0.000000
0.000000
-0.000000
-0.000000
-0.000000
-0.000000
-0.000000
-0.000000
0.000000
0.000000
-0.000000
0.000000
0.361595
0.345237
0.336705
0.342841
0.361284
0.360270
0.219597
0.213337
0.203183
0.196554
0.203672
0.214873
-0.012066
-0.006812
-0.001572
0.006184
0.004005
0.004521
-0.003779
0.722621
0.692331
0.658280
0.661111
0.692993
0.725768
-0.000000
-0.000000
0.000000
0.000000
0.000000
-0.000000
0.598203
0.571260
0.543765
0.543823
0.570364
0.598131
-0.006165
-0.007389
-0.003639
-0.000279
0.000790
-0.001492
0.494759
0.474639
0.475281
0.497058
0.509733
0.502199
0.302797
0.288430
0.275993
0.276056
0.287534
0.302959
0.570382
0.543815
0.518808
0.518975
0.544070
0.570956
0.648560
0.615706
0.616012
0.646643
0.653780
0.648523
0.287389
0.275817
0.260376
0.260438
0.273677
0.287627
1.098737
1.069059
1.006885
0.985194
1.007357
1.074683
-0.077754
-0.069313
-0.030611
0.010243
0.010132
-0.064568
1.094470
1.071835
1.006561
0.978473
0.996186
1.066118
0.545293
0.520228
0.496424
0.496214
0.521508
0.546438
-0.000000
-0.000000
0.000000
0.000000
0.000000
-0.000000
0.000000
0.000000
-0.000000
-0.000000
0.000000
-0.000000
-0.000000
-0.000000
0.000000
0.000000
0.000000
-0.000000
0.000000
-0.000000
-0.000000
-0.000000
0.469406
0.449845
0.419739
0.420406
0.446082
0.764309
0.721061
0.693536
0.691342
0.731657
0.766965
0.189819
0.142816
0.070700
-0.015883
0.011164
0.115328
0.402360
0.387502
0.390544
0.412629
0.420894
0.412229
0.000000
0.000000
0.000000
-0.000000
-0.000000
-0.000000
0.281882
0.172754
0.004745
-0.063474
-0.028881
0.108370
0.238434
0.000000
-0.000000
-0.000000
-0.000000
-0.000000
-0.000000
0.275744
0.261943
0.253272
0.251686
0.260264
0.275720
0.164183
0.158158
0.159074
0.165816
0.168832
0.169861
0.539820
0.451817
0.277529
0.182755
0.294374
0.505148
1.412703
1.311489
1.280495
1.306872
1.413041
0.806542
0.755537
0.725033
0.726471
0.768262
0.812517
0.349670
0.317610
0.317609
0.333383
0.350120
1.412600
1.305654
1.279027
1.306061
1.413070
0.003409
0.001659
-0.000670
-0.000643
0.001658
0.575494
0.562727
0.535683
0.520145
0.534475
0.561530
0.187284
0.180748
0.176847
0.179327
0.185702
0.192086
-0.000000
-0.000000
-0.000000
0.000000
0.000000
0.000000
1.412721
1.307735
1.281343
1.312346
1.413195
0.494912
0.471655
0.450876
0.450412
0.472822
0.495216
0.426353
0.349287
0.209581
0.138491
0.228668
0.390336
1.204081
1.171166
1.101785
1.077389
1.107874
1.172910
1.100695
1.072756
1.013574
0.983839
1.004960
1.073627
1.173911
1.098045
1.083371
1.122107
1.158857
1.212275
0.130132
0.121256
0.105629
0.084637
0.089049
0.111294
0.126040
-0.001478
-0.002146
0.000145
0.001466
0.001429
0.000000
-0.000000
-0.000000
0.000000
-0.000000
0.512670
0.498258
0.481867
0.473763
0.532099
0.530838
0.002333
0.002051
0.002706
0.001989
0.001118
0.003765
-0.000000
-0.000000
-0.000000
0.000000
0.000000
-0.000000
0.158144
0.150845
0.142356
0.147218
0.152190
0.000000
0.000000
-0.000000
-0.000000
0.000000
-0.000000
0.000000
0.000000
0.000000
-0.000000
-0.000000
0.000000
1.412563
1.309180
1.281691
1.307651
1.412825
-0.003444
-0.004184
-0.005473
-0.005285
-0.004547
-0.008374
1.412682
1.308897
1.281546
1.311126
1.413177
1.309694
1.277637
1.201428
1.172431
1.199616
1.278469
0.185243
0.179081
0.170471
0.169074
0.175728
0.180189
0.301798
0.288821
0.281510
0.278831
0.292624
0.314742
0.326285
0.314982
0.288876
0.261803
0.277673
0.340671
0.350013
0.333184
0.317817
0.317604
0.333509
0.349761
1.216479
1.179893
1.116465
1.093826
1.129049
1.189134
0.723333
0.680413
0.651386
0.652005
0.693491
0.726350
0.000382
-0.000384
-0.000835
0.000245
-0.001688
0.001151
0.000325
-0.000242
0.000015
0.000859
0.936213
0.639840
0.225750
-0.186253
-0.098729
0.475483
1.206664
1.173959
1.103938
1.082241
1.115221
1.180529
0.000000
-0.000000
-0.000000
-0.000000
-0.000000
-0.000000
0.473276
0.450101
0.429426
0.428199
0.450535
0.472599
0.914569
0.862914
0.837184
0.843670
0.898570
0.930866
0.203254
0.196873
0.186716
0.180340
0.185423
0.196284
0.000000
0.000000
-0.000000
-0.000000
-0.000000
0.000000
-0.000206
-0.000117
0.000006
0.000021
-0.000086
0.662333
0.652279
0.631699
0.623341
0.688024
0.698689
-0.000148
-0.000399
-0.000058
0.000107
0.000029
0.000138
0.409630
0.389465
0.372843
0.372048
0.390814
0.408846
0.000564
0.001410
0.000185
-0.000557
-0.000269
-0.000943
-0.005327
-0.001998
0.001766
0.002548
0.002226
-0.000658
-0.000000
0.000000
0.000000
-0.000000
-0.000000
-0.000000
0.940376
0.899394
0.845861
0.855936
0.914670
-0.000001
-0.000001
0.000000
-0.000001
-0.000490
-0.000182
0.000115
0.000089
-0.000043
0.081429
0.042836
0.020474
0.044298
0.061479
0.000044
0.000036
0.000013
-0.000010
-0.000014
0.000039
-0.000000
0.000000
0.000000
-0.000000
-0.000000
-0.000000
0.742675
0.633545
0.320301
0.258062
0.680758
0.007290
0.005118
0.000682
-0.001360
-0.001471
0.002476
0.000001
0.000001
0.000000
-0.000000
0.000000
0.000006
0.000012
0.000017
0.000006
-0.000001
0.000026
0.196090
0.187463
0.181269
0.186641
0.197004
0.201691
-0.000000
-0.000000
0.000000
0.000000
0.000000
0.000032
0.000022
0.000001
-0.000007
-0.000008
0.000006
0.160449
0.146271
0.145434
0.153335
0.161001
-0.000000
-0.000000
-0.000000
-0.000000
-0.000000
-0.000000
1.412759
1.312076
1.283780
1.316041
1.413279
1.177451
1.129687
1.091930
1.117577
1.178623
1.217499
0.479978
0.451471
0.435757
0.440953
0.467774
0.491715
0.000397
0.000251
0.000022
-0.000226
-0.000202
-0.000234
-0.000203
-0.018001
-0.014288
-0.003621
0.001413
-0.002101
-0.014645
0.076550
0.059130
0.045173
0.018134
0.019336
0.048277
0.853171
0.807551
0.780956
0.784447
0.836315
0.862485
0.234258
0.219534
0.215050
0.224332
0.239491
0.572751
0.545595
0.519498
0.518822
0.544742
0.572648
1.194704
1.165443
1.092759
1.069040
1.093311
1.168221
0.000000
-0.000000
0.000000
0.000000
0.000000
0.000000
-0.000001
-0.000003
0.000000
0.000001
0.000000
0.000001
0.598770
0.570619
0.544123
0.544016
0.570733
0.599268
0.825049
0.792202
0.796852
0.842675
0.845298
0.859509
-0.030689
-0.017893
-0.000131
0.010188
0.007984
-0.015729
1.193965
1.167943
1.094540
1.067742
1.088379
1.166168
0.000000
-0.000000
0.000000
0.000000
0.000000
0.000000
-0.045005
-0.029868
-0.002717
0.011013
0.009585
-0.008140
-0.000095
-0.000038
0.000017
0.000027
0.000027
-0.000034
-0.015879
-0.005512
0.005228
0.005552
0.005584
0.007820
0.000322
0.003875
0.003216
0.001365
0.008418
0.302118
0.078321
-0.090014
-0.143432
-0.182561
-0.079535
1.311751
1.279330
1.203658
1.173375
1.202480
1.279197
-0.070459
-0.045110
0.000209
0.014171
0.012300
-0.007312
0.570980
0.542860
0.543324
0.564349
0.576766
0.575913
1.172555
1.108837
1.079657
1.107331
1.172153
1.203196
-0.000002
-0.000001
0.000000
0.000000
0.000000
0.000001
1.321145
1.284323
1.209587
1.177929
1.210010
1.280789
1.108802
1.082662
1.001841
0.987929
1.018101
1.078309
1.310039
1.279036
1.208025
1.175171
1.213857
1.283135
-0.000024
-0.000041
0.000001
0.000027
0.000012
0.000039
0.582314
0.488822
0.297941
0.188240
0.306950
0.553102
0.000000
0.000000
0.000000
-0.000000
-0.000000
0.000000
0.418673
0.401846
0.379803
0.384421
0.403413
0.419793
0.000000
-0.000000
-0.000000
-0.000000
-0.000000
-0.000000
0.000000
0.000000
-0.000000
-0.000000
-0.000000
0.000013
0.000022
0.000011
-0.000000
-0.000002
0.000007
-0.000576
-0.000561
-0.000407
-0.000038
0.000051
-0.000481
-0.000000
0.000000
-0.000000
-0.000000
-0.000000
-0.000000
0.000008
0.000002
-0.000003
-0.000002
-0.000001
-0.000009
0.699938
0.661585
0.632493
0.631742
0.659397
0.699386
0.916161
0.894150
0.851449
0.817200
0.819475
0.848293
0.901895
0.821850
0.771598
0.738790
0.740714
0.777203
0.820303
0.000000
-0.000000
-0.000000
0.000000
0.000000
0.000000
1.412384
1.308778
1.286587
1.302021
1.413042
-0.000071
-0.000119
-0.000030
0.000033
0.000023
0.000040
0.301799
0.289413
0.281556
0.284798
0.299987
0.301022
0.000022
0.000011
-0.000003
-0.000005
-0.000005
0.000018
0.386145
0.367594
0.350423
0.350420
0.368522
0.386004
0.008328
0.007035
0.001250
-0.001383
-0.001029
0.008007
0.157670
0.152702
0.148076
0.148859
0.155734
0.159704
0.000023
0.000012
-0.000003
-0.000005
-0.000005
-0.000008
0.288371
0.274279
0.262719
0.262012
0.275833
0.288298
-0.000000
0.000000
0.000000
-0.000000
-0.000000
-0.000000
-0.000000
-0.000000
0.000000
0.000000
0.000000
-0.000000
0.687376
0.645957
0.625187
0.627064
0.667786
0.690504
0.006827
-0.010813
-0.023775
-0.024058
-0.028126
-0.021927
0.000006
-0.000019
-0.000095
-0.000148
-0.000119
-0.000254
0.905626
0.938253
0.751288
0.543570
0.293203
0.368340
0.801770
-0.000006
-0.000004
-0.000000
0.000001
0.000002
-0.000006
-0.000000
0.000000
-0.000000
-0.000000
-0.000000
-0.000000
0.000000
0.000000
0.000000
-0.000000
-0.000000
0.000000
0.004379
-0.005310
-0.016151
-0.016354
-0.017024
-0.024942
-0.000000
-0.000000
0.000000
0.000000
-0.000000
-0.000000
-0.000000
-0.000000
0.000000
0.000000
0.000000
-0.000000
-0.000000
-0.000000
-0.000000
-0.000000
0.499642
0.413185
0.256463
0.170578
0.274415
0.465046
-0.000121
-0.000153
0.000017
0.000067
0.000044
0.000092
0.650800
0.609523
0.576542
0.577391
0.613452
0.652498
-0.000003
0.000004
-0.000003
-0.000002
0.000000
-0.000006
1.116636
1.082115
1.038535
1.001437
1.021535
1.081158
1.315325
1.263960
1.289499
0.963407
0.626492
0.842375
1.401823
0.220276
0.214633
0.201748
0.197035
0.203035
0.213577
0.000000
0.000000
0.000000
-0.000000
0.000000
1.078375
1.019045
0.983065
0.961324
0.996467
1.058011
0.003261
0.003581
0.002496
0.000574
0.000130
0.001654
0.273454
0.260314
0.247533
0.250299
0.261858
0.273952
0.000000
0.000000
-0.000000
-0.000000
-0.000000
0.000000
0.000001
0.000001
0.000000
-0.000000
0.000000
0.603815
0.574975
0.551964
0.549580
0.579994
0.607549
1.127506
1.088886
1.028450
1.011235
1.051556
1.090627
1.302414
1.277491
1.216858
1.180961
1.219931
1.284646
1.299418
0.000034
0.000244
-0.000117
-0.000191
-0.000093
-0.000090
-0.000528
0.000001
0.000001
0.000000
-0.000000
0.000000
0.000001
0.003384
0.001806
-0.000410
-0.000715
-0.000632
-0.000815
0.426876
0.406031
0.388150
0.387832
0.408171
0.426694
0.431966
0.415770
0.419036
0.437813
0.449491
0.441686
1.089777
1.032196
0.998975
1.037179
1.082951
1.118290
1.309067
1.277179
1.204233
1.174117
1.206847
1.280216
0.998633
0.960438
0.910318
0.884642
0.915406
0.967194
0.000000
-0.000000
-0.000000
0.000000
0.000000
0.000000
0.000000
0.760720
0.726178
0.693325
0.696191
0.732414
0.764774
0.658448
0.630049
0.598714
0.599986
0.627286
0.660596
1.412623
1.307813
1.279204
1.304566
1.413016
0.129337
0.080355
0.014385
0.022692
0.106764
0.261893
0.250329
0.237640
0.237418
0.249922
0.263875
0.297067
0.272133
0.207587
0.132464
0.145900
0.260923
-0.012389
-0.011374
-0.005932
-0.002126
-0.005793
-0.014802
0.045021
0.050984
0.025951
-0.004545
-0.007532
0.000280
0.004349
-0.014622
-0.028409
-0.025708
-0.032146
-0.027463
0.006366
0.003558
0.000088
-0.001417
-0.001823
0.000271
0.770027
0.724971
0.721751
0.765184
0.794623
0.000000
-0.000000
0.000000
0.000000
0.000000
0.000000
-0.000230
-0.000209
-0.000127
-0.000063
-0.000109
-0.000305
1.309618
1.277378
1.200899
1.173300
1.202825
1.278396
0.003299
0.004907
0.002181
0.000671
0.009809
0.002423
0.000907
-0.000688
-0.000604
-0.000125
-0.004771
-0.001133
0.002775
0.002595
0.002247
-0.001693
0.824329
0.779532
0.751931
0.755199
0.808107
0.840021
0.385632
0.350195
0.350317
0.367671
0.386048
1.150082
1.043024
1.042976
1.097269
1.152455
-0.000000
-0.000000
0.000000
0.000000
0.000000
-0.000000
0.518930
0.494002
0.470405
0.469837
0.493495
0.518320
0.707527
0.697970
0.675123
0.660558
0.736091
0.748328
0.996844
0.962631
0.920337
0.946171
0.990780
0.974590
1.100653
1.067345
1.002004
0.983150
1.009536
1.061922
-0.000000
0.000000
0.000000
0.000000
0.000000
0.000000
-0.000395
-0.000487
-0.000236
0.000105
0.000267
-0.001056
0.000027
0.000015
0.000017
0.000009
0.000019
0.000000
0.000000
0.000000
-0.000000
0.000000
0.000000
-0.000000
0.000000
0.000000
0.000000
0.000000
0.291592
0.183901
0.024503
-0.041665
0.003780
0.176895
-0.124213
-0.090427
-0.023433
0.029527
0.039582
-0.101736
0.215642
0.213621
0.203451
0.200283
0.214008
0.226344
0.000000
0.000000
-0.000000
-0.000000
-0.000000
0.002321
0.002498
-0.002879
-0.007745
-0.007599
-0.010078
0.003415
0.004983
0.003484
-0.000644
-0.001507
0.010207
-0.000000
0.000000
0.000000
-0.000000
0.000000
0.543234
0.518095
0.493835
0.493541
0.518107
0.543418
0.054522
0.047092
0.020231
-0.001108
-0.002884
0.005933
0.041917
-0.005510
-0.007469
-0.007901
-0.006755
-0.011784
-0.005306
-0.000115
-0.000044
0.000021
0.000035
0.000042
-0.000047
0.534219
0.354088
0.089771
-0.080457
-0.037972
0.229515
1.412634
1.307036
1.280111
1.307933
1.413110
0.724209
0.696620
0.659124
0.661292
0.689744
0.727549
0.093184
0.065882
0.011121
-0.025461
-0.013679
0.025241
1.130490
1.139962
0.913928
0.589395
0.617704
1.133027
-0.000000
-0.000000
0.000000
0.000000
0.000000
-0.000000
0.001951
0.001196
0.000574
0.000105
0.000651
0.001621
0.466051
0.444290
0.448142
0.466848
0.474986
0.472427
-0.000000
-0.000000
-0.000000
-0.000000
-0.000000
-0.000000
1.412674
1.310983
1.280491
1.308820
1.413078
0.000546
-0.000024
-0.000462
-0.000149
-0.000078
-0.001113
0.333886
0.317696
0.302645
0.302761
0.318883
0.334069
0.600869
0.572790
0.545019
0.544311
0.571772
0.600420
0.195438
0.177118
0.177336
0.186481
0.194996
0.130819
0.120383
0.122977
0.127866
0.130610
0.000000
0.000000
0.000000
-0.000000
-0.000000
-0.000000
-0.000587
-0.000404
-0.000047
0.000118
0.000148
-0.000206
0.107254
0.094526
0.054893
0.043526
0.050904
0.083132
1.116377
1.080451
1.025030
1.002843
1.042624
1.092532
0.000000
0.000000
-0.000000
0.000000
-0.000000
0.000197
0.000997
0.001259
0.001105
0.001758
0.000638
0.317453
0.302193
0.288676
0.288505
0.302926
0.317350
-0.000078
-0.000042
0.000012
0.000022
0.000023
0.000027
-0.026264
-0.038148
-0.030173
-0.009023
-0.018243
-0.065080
-0.001934
0.001825
0.003663
0.002461
0.003684
0.003334
-0.000003
-0.000004
-0.000002
0.000000
0.000001
-0.000001
0.002798
0.001314
-0.000489
-0.000495
-0.000458
-0.001129
0.146111
0.131748
0.131100
0.137711
0.145277
0.858593
0.816190
0.770827
0.778885
0.825226
0.426086
0.405509
0.386610
0.386297
0.406225
0.425743
-0.000004
-0.000002
0.000001
0.000001
0.000000
-0.000003
0.000035
0.000016
-0.000004
-0.000009
-0.000013
0.000022
0.000685
0.002635
0.001326
-0.000441
-0.000665
-0.000600
-0.000852
0.211497
0.201733
0.201359
0.211896
0.213363
0.213906
1.179060
1.127985
1.091218
1.128292
1.178162
1.220430
0.689295
0.660892
0.627596
0.629684
0.657981
0.691960
1.311881
1.278868
1.201039
1.176422
1.205703
1.282092
0.000000
0.000000
0.000000
-0.000000
0.000000
0.000001
1.322846
1.284527
1.216874
1.190422
1.224473
1.284632
0.288482
0.274159
0.261970
0.263831
0.276499
0.289204
1.024687
0.987218
0.939434
0.919040
0.957944
1.001650
0.000000
0.000001
0.000000
-0.000000
-0.000000
0.000000
0.000532
-0.007509
-0.014447
-0.014328
-0.016427
-0.012879
-0.003604
-0.001176
0.002045
0.002543
0.002536
0.000250
-0.016648
-0.027748
-0.030183
-0.020274
-0.029391
-0.044197
-0.002587
-0.003869
-0.000812
0.001926
0.002098
0.002181
0.000000
0.000000
-0.000000
-0.000000
-0.000000
-0.000000
0.989737
0.935463
0.910662
0.936056
0.986752
1.016478
0.534793
0.519090
0.491318
0.470713
0.473483
0.497515
0.523547
0.123979
0.117770
0.106636
0.097481
0.106517
0.123848
0.923032
0.873187
0.868956
0.921067
0.960645
-0.000842
-0.001967
0.000648
0.002408
0.002011
0.003157
-0.099956
-0.098782
-0.063900
0.001056
-0.006586
-0.148481
0.142858
0.146079
0.110093
0.056048
0.045705
0.088086
0.003335
0.001913
-0.000045
-0.000554
-0.000407
0.001951
-0.000238
-0.000229
-0.000100
-0.000035
-0.000069
-0.000324
0.000000
-0.000000
-0.000000
0.000000
0.000000
0.000000
0.855123
0.774608
0.774931
0.812654
0.855041
1.412555
1.302095
1.277581
1.306773
1.413150
-0.000004
-0.000003
-0.000000
0.000001
0.000000
-0.000005
0.367696
0.350017
0.333745
0.333315
0.350222
0.367436
0.997018
0.975952
0.914795
0.887223
0.919286
0.971362
1.022413
0.999497
0.949694
0.916366
0.930235
0.988269
1.006441
0.986966
0.931125
0.899448
0.913839
0.977093
0.881798
0.844893
0.811932
0.791993
0.802662
0.862335
0.000000
0.000001
0.000000
-0.000000
-0.000000
-0.000000
-0.016815
-0.031693
-0.030948
-0.017608
-0.029370
-0.053475
0.000000
0.000000
0.000000
-0.000000
0.000000
-0.000000
-0.000000
-0.000000
0.000000
0.000000
0.000000
-0.000000
0.710055
0.669721
0.644113
0.645742
0.687999
0.712455
0.187493
0.184033
0.170277
0.166232
0.171489
0.181201
0.000000
0.000000
0.000000
-0.000000
-0.000000
0.000000
0.551215
0.522134
0.499174
0.499854
0.533969
0.549154
0.000000
0.000000
-0.000000
-0.000000
-0.000000
-0.000000
-0.000018
0.000008
0.000033
0.000012
-0.000003
0.000070
1.007680
0.988193
0.999726
0.971820
0.948732
1.121711
-0.000000
-0.000000
-0.000000
0.000000
0.000000
0.323843
0.307703
0.292898
0.290748
0.302867
0.320959
0.000044
0.000055
0.000020
-0.000008
-0.000011
0.000016
0.444525
0.420013
0.405785
0.412081
0.432623
0.451435
0.769710
0.737661
0.703743
0.708144
0.751445
0.779096
0.000013
0.000019
0.000002
-0.000005
-0.000005
-0.000007
0.643005
0.607881
0.580338
0.585069
0.624513
0.645649
0.318634
0.302683
0.288897
0.289391
0.304715
0.318809
0.276013
0.263232
0.253673
0.262609
0.267215
0.276153
0.000000
-0.000000
-0.000000
0.000000
0.000000
0.000121
-0.000229
-0.000377
-0.000027
0.000062
-0.001051
0.624026
0.585460
0.563977
0.575502
0.613871
0.627058
0.546812
0.532230
0.518311
0.513005
0.572061
0.565245
0.000016
0.000030
-0.000000
-0.000010
-0.000005
-0.000012
0.493226
0.469711
0.447825
0.447564
0.470146
0.493015
0.608896
0.579479
0.577814
0.603916
0.614954
0.611946
0.209034
0.196969