# vtk DataFile Version 3.0 
Date: 3/9/2016   Time: 10:24
ASCII 
DATASET UNSTRUCTURED_GRID 
 
POINTS 1473 float 
0.122977 0.893246 0.000000 
0.169562 0.892641 0.000000 
0.184707 0.933361 0.000000 
0.135865 0.958952 0.000000 
0.107521 0.930532 0.000000 
0.330870 0.944935 0.000000 
0.367838 0.929539 0.000000 
0.394438 0.945411 0.000000 
0.393899 1.000000 0.000000 
0.330705 1.000000 0.000000 
0.508744 0.326634 0.000000 
0.537037 0.325083 0.000000 
0.565059 0.364686 0.000000 
0.553383 0.394463 0.000000 
0.514737 0.401761 0.000000 
0.489012 0.372862 0.000000 
0.727811 0.070363 0.000000 
0.772702 0.057942 0.000000 
0.793472 0.071009 0.000000 
0.794715 0.114373 0.000000 
0.762269 0.133538 0.000000 
0.726380 0.111680 0.000000 
0.000000 0.693660 0.000000 
0.044876 0.694212 0.000000 
0.067515 0.728566 0.000000 
0.054642 0.757502 0.000000 
0.000000 0.759509 0.000000 
0.928783 0.411648 0.000000 
0.943335 0.380897 0.000000 
1.000000 0.380942 0.000000 
1.000000 0.442636 0.000000 
0.945530 0.443624 0.000000 
0.719269 0.000000 0.000000 
0.771953 0.000000 0.000000 
0.772702 0.057942 0.000000 
0.727811 0.070363 0.000000 
0.715977 0.060043 0.000000 
0.932536 0.538027 0.000000 
0.948530 0.507000 0.000000 
1.000000 0.505878 0.000000 
1.000000 0.571306 0.000000 
0.951942 0.571191 0.000000 
0.460605 0.446615 0.000000 
0.501238 0.439821 0.000000 
0.526171 0.469359 0.000000 
0.512336 0.507253 0.000000 
0.475736 0.514393 0.000000 
0.448395 0.483259 0.000000 
0.111630 0.181741 0.000000 
0.136484 0.169093 0.000000 
0.170657 0.189975 0.000000 
0.165182 0.236166 0.000000 
0.124688 0.245295 0.000000 
0.103871 0.225656 0.000000 
0.258947 0.000000 0.000000 
0.314673 0.000000 0.000000 
0.318028 0.061696 0.000000 
0.297421 0.073032 0.000000 
0.256907 0.058938 0.000000 
0.000000 0.260338 0.000000 
0.050294 0.256161 0.000000 
0.071980 0.296556 0.000000 
0.060065 0.321169 0.000000 
0.000000 0.319745 0.000000 
0.267647 0.943923 0.000000 
0.304071 0.928795 0.000000 
0.330870 0.944935 0.000000 
0.330705 1.000000 0.000000 
0.265788 1.000000 0.000000 
0.531239 0.789704 0.000000 
0.565435 0.780364 0.000000 
0.595287 0.807588 0.000000 
0.580792 0.853394 0.000000 
0.553760 0.861215 0.000000 
0.519945 0.822496 0.000000 
0.886180 0.476899 0.000000 
0.930495 0.474459 0.000000 
0.948530 0.507000 0.000000 
0.932536 0.538027 0.000000 
0.891523 0.540744 0.000000 
0.871703 0.509629 0.000000 
0.129739 0.734962 0.000000 
0.169873 0.715697 0.000000 
0.204390 0.740300 0.000000 
0.191246 0.786002 0.000000 
0.176964 0.791561 0.000000 
0.131059 0.764725 0.000000 
0.200563 0.941150 0.000000 
0.237892 0.925739 0.000000 
0.267647 0.943923 0.000000 
0.265788 1.000000 0.000000 
0.206004 1.000000 0.000000 
0.000000 0.630186 0.000000 
0.058306 0.631068 0.000000 
0.068980 0.655734 0.000000 
0.044876 0.694212 0.000000 
0.000000 0.693660 0.000000 
0.760200 0.425398 0.000000 
0.803689 0.421484 0.000000 
0.823342 0.449185 0.000000 
0.809110 0.487484 0.000000 
0.768154 0.491830 0.000000 
0.746996 0.465828 0.000000 
0.313559 0.278285 0.000000 
0.349467 0.267095 0.000000 
0.378326 0.297032 0.000000 
0.366563 0.335646 0.000000 
0.330606 0.341251 0.000000 
0.304222 0.314970 0.000000 
0.469020 0.071213 0.000000 
0.496066 0.057874 0.000000 
0.529878 0.071944 0.000000 
0.529544 0.120421 0.000000 
0.494226 0.135656 0.000000 
0.467170 0.117631 0.000000 
0.425262 0.247664 0.000000 
0.456469 0.234814 0.000000 
0.492378 0.260569 0.000000 
0.484565 0.301716 0.000000 
0.441569 0.311362 0.000000 
0.416904 0.287029 0.000000 
0.692580 0.131255 0.000000 
0.726380 0.111680 0.000000 
0.762269 0.133538 0.000000 
0.760959 0.168094 0.000000 
0.728756 0.190270 0.000000 
0.693430 0.170557 0.000000 
0.392892 0.424907 0.000000 
0.438603 0.419848 0.000000 
0.460605 0.446615 0.000000 
0.448395 0.483259 0.000000 
0.409148 0.492412 0.000000 
0.382145 0.460867 0.000000 
0.626937 0.693148 0.000000 
0.668278 0.684449 0.000000 
0.691924 0.712226 0.000000 
0.681846 0.749689 0.000000 
0.640563 0.757711 0.000000 
0.615907 0.731857 0.000000 
0.831095 0.825108 0.000000 
0.868614 0.825056 0.000000 
0.887789 0.859296 0.000000 
0.871800 0.887966 0.000000 
0.822632 0.889310 0.000000 
0.808163 0.869524 0.000000 
0.394438 0.945411 0.000000 
0.429531 0.930783 0.000000 
0.458377 0.948596 0.000000 
0.456411 1.000000 0.000000 
0.393899 1.000000 0.000000 
0.705386 0.471083 0.000000 
0.746996 0.465828 0.000000 
0.768154 0.491830 0.000000 
0.754219 0.531674 0.000000 
0.716316 0.537877 0.000000 
0.691291 0.507899 0.000000 
0.525900 0.198588 0.000000 
0.559349 0.181421 0.000000 
0.589619 0.197269 0.000000 
0.594326 0.234811 0.000000 
0.556509 0.262961 0.000000 
0.524955 0.246179 0.000000 
0.556509 0.262961 0.000000 
0.594326 0.234811 0.000000 
0.627910 0.251232 0.000000 
0.630113 0.299338 0.000000 
0.614183 0.310724 0.000000 
0.561909 0.292322 0.000000 
0.367659 0.709670 0.000000 
0.402923 0.674711 0.000000 
0.416442 0.674598 0.000000 
0.443868 0.702566 0.000000 
0.434874 0.743968 0.000000 
0.394482 0.756056 0.000000 
0.371078 0.739844 0.000000 
0.857810 0.069078 0.000000 
0.888262 0.050890 0.000000 
0.931411 0.071479 0.000000 
0.928936 0.098816 0.000000 
0.884752 0.123395 0.000000 
0.861499 0.111170 0.000000 
0.398307 0.182063 0.000000 
0.420876 0.167932 0.000000 
0.463764 0.194045 0.000000 
0.456469 0.234814 0.000000 
0.425262 0.247664 0.000000 
0.391764 0.222283 0.000000 
0.220313 0.504456 0.000000 
0.263112 0.490440 0.000000 
0.290540 0.516787 0.000000 
0.282685 0.554261 0.000000 
0.246798 0.567346 0.000000 
0.214697 0.541920 0.000000 
0.064880 0.508842 0.000000 
0.075919 0.482484 0.000000 
0.124637 0.472323 0.000000 
0.147316 0.496354 0.000000 
0.142776 0.531289 0.000000 
0.117136 0.546161 0.000000 
0.071937 0.528498 0.000000 
0.652942 0.514028 0.000000 
0.691291 0.507899 0.000000 
0.716316 0.537877 0.000000 
0.702721 0.574626 0.000000 
0.665894 0.582673 0.000000 
0.639461 0.553207 0.000000 
0.412549 0.065997 0.000000 
0.436183 0.055303 0.000000 
0.469020 0.071213 0.000000 
0.467170 0.117631 0.000000 
0.425925 0.132656 0.000000 
0.404155 0.111163 0.000000 
0.000000 0.000000 0.000000 
0.066350 0.000000 0.000000 
0.066996 0.051431 0.000000 
0.049860 0.064704 0.000000 
0.000000 0.058433 0.000000 
0.539210 0.537410 0.000000 
0.575572 0.531377 0.000000 
0.601297 0.560353 0.000000 
0.588413 0.599040 0.000000 
0.549396 0.606293 0.000000 
0.523602 0.578013 0.000000 
0.111038 0.667902 0.000000 
0.132193 0.654665 0.000000 
0.173778 0.675700 0.000000 
0.169873 0.715697 0.000000 
0.129739 0.734962 0.000000 
0.109485 0.720089 0.000000 
0.642547 0.445523 0.000000 
0.682010 0.439942 0.000000 
0.705386 0.471083 0.000000 
0.691291 0.507899 0.000000 
0.652942 0.514028 0.000000 
0.628708 0.486407 0.000000 
0.135865 0.958952 0.000000 
0.184707 0.933361 0.000000 
0.200563 0.941150 0.000000 
0.206004 1.000000 0.000000 
0.133801 1.000000 0.000000 
0.707286 0.950754 0.000000 
0.750682 0.928014 0.000000 
0.769229 0.941246 0.000000 
0.769597 1.000000 0.000000 
0.708120 1.000000 0.000000 
0.521815 0.954948 0.000000 
0.562492 0.930283 0.000000 
0.582119 0.936699 0.000000 
0.586470 1.000000 0.000000 
0.523130 1.000000 0.000000 
0.000000 0.449963 0.000000 
0.055815 0.445024 0.000000 
0.075919 0.482484 0.000000 
0.064880 0.508842 0.000000 
0.000000 0.504928 0.000000 
0.322966 0.403849 0.000000 
0.376808 0.402737 0.000000 
0.392892 0.424907 0.000000 
0.382145 0.460867 0.000000 
0.340252 0.471972 0.000000 
0.312601 0.439478 0.000000 
0.693791 0.248802 0.000000 
0.730314 0.223822 0.000000 
0.761737 0.242909 0.000000 
0.761833 0.287055 0.000000 
0.742455 0.300756 0.000000 
0.697376 0.280226 0.000000 
0.378326 0.297032 0.000000 
0.416904 0.287029 0.000000 
0.441569 0.311362 0.000000 
0.431739 0.353903 0.000000 
0.388631 0.360181 0.000000 
0.366563 0.335646 0.000000 
0.426879 0.559111 0.000000 
0.461666 0.551598 0.000000 
0.490221 0.582886 0.000000 
0.471186 0.625808 0.000000 
0.444106 0.628321 0.000000 
0.412819 0.594496 0.000000 
0.358703 0.235711 0.000000 
0.391764 0.222283 0.000000 
0.425262 0.247664 0.000000 
0.416904 0.287029 0.000000 
0.378326 0.297032 0.000000 
0.349467 0.267095 0.000000 
0.891523 0.540744 0.000000 
0.932536 0.538027 0.000000 
0.951942 0.571191 0.000000 
0.931883 0.605783 0.000000 
0.897114 0.603774 0.000000 
0.876889 0.572587 0.000000 
0.631464 0.377639 0.000000 
0.672352 0.369583 0.000000 
0.695815 0.407244 0.000000 
0.682010 0.439942 0.000000 
0.642547 0.445523 0.000000 
0.619481 0.419552 0.000000 
0.497069 0.653678 0.000000 
0.536846 0.646175 0.000000 
0.562076 0.673701 0.000000 
0.550628 0.712559 0.000000 
0.511569 0.721683 0.000000 
0.485528 0.693708 0.000000 
0.815331 0.696223 0.000000 
0.860449 0.690017 0.000000 
0.880592 0.729717 0.000000 
0.866750 0.756510 0.000000 
0.824457 0.760834 0.000000 
0.802265 0.728054 0.000000 
0.657603 0.069394 0.000000 
0.665980 0.061595 0.000000 
0.715977 0.060043 0.000000 
0.727811 0.070363 0.000000 
0.726380 0.111680 0.000000 
0.692580 0.131255 0.000000 
0.659845 0.113051 0.000000 
0.452498 0.376564 0.000000 
0.489012 0.372862 0.000000 
0.514737 0.401761 0.000000 
0.501238 0.439821 0.000000 
0.460605 0.446615 0.000000 
0.438603 0.419848 0.000000 
0.330606 0.341251 0.000000 
0.366563 0.335646 0.000000 
0.388631 0.360181 0.000000 
0.376808 0.402737 0.000000 
0.322966 0.403849 0.000000 
0.313767 0.388150 0.000000 
0.823342 0.449185 0.000000 
0.867460 0.445920 0.000000 
0.886180 0.476899 0.000000 
0.871703 0.509629 0.000000 
0.829344 0.513478 0.000000 
0.809110 0.487484 0.000000 
0.679769 0.890287 0.000000 
0.707863 0.876754 0.000000 
0.747222 0.900234 0.000000 
0.750682 0.928014 0.000000 
0.707286 0.950754 0.000000 
0.675291 0.930276 0.000000 
0.302299 0.698906 0.000000 
0.325729 0.686844 0.000000 
0.367659 0.709670 0.000000 
0.371078 0.739844 0.000000 
0.327338 0.763012 0.000000 
0.296169 0.741573 0.000000 
0.592268 0.071827 0.000000 
0.610066 0.059665 0.000000 
0.657603 0.069394 0.000000 
0.659845 0.113051 0.000000 
0.623728 0.134772 0.000000 
0.593307 0.118294 0.000000 
0.514737 0.401761 0.000000 
[...]
CELL_DATA 256
FIELD FieldData 1
material 1 256 int
1
1
1
1
1
1
1
1
1
1
1
1
1
1
1
1
1
1
1
1
1
1
1
1
1
1
1
1
1
1
1
1
1
1
1
1
1
1
1
1
1
1
1
1
1
1
1
1
1
1
1
1
1
1
1
1
1
1
1
1
1
1
1
1
1
1
1
1
1
1
1
1
1
1
1
1
1
1
1
1
1
1
1
1
1
1
1
1
1
1
1
1
1
1
1
1
1
1
1
1
1
1
1
1
1
1
1
1
1
1
1
1
1
1
1
1
1
1
1
1
1
1
1
1
1
1
1
1
1
1
1
1
1
1
1
1
1
1
1
1
1
1
1
1
1
1
1
1
1
1
1
1
1
1
1
1
1
1
1
1
1
1
1
1
1
1
1
1
1
1
1
1
1
1
1
1
1
1
1
1
1
1
1
1
1
1
1
1
1
1
1
1
1
1
1
1
1
1
1
1
1
1
1
1
1
1
1
1
1
1
1
1
1
1
1
1
1
1
1
1
1
1
1
1
1
1
1
1
1
1
1
1
1
1
1
1
1
1
1
1
1
1
1
1
1
1
1
1
1
1
1
1
1
1
1
1
POINT_DATA 1473 SCALARS flux_g1 double 
LOOKUP_TABLE   default 
0.206102
0.012351
-0.077138
-0.089655
0.039111
0.000048
-0.000009
-0.000045
0.000009
-0.000150
0.340761
0.316399
0.278873
0.270700
0.344486
0.362327
0.179695
0.159890
0.150949
0.149770
0.162816
0.184969
1.410242
1.243737
1.165792
1.205825
1.409376
0.000004
-0.000060
-0.000054
-0.000029
-0.000126
0.179057
0.156507
0.159810
0.179097
0.182259
0.000013
0.000026
0.000003
-0.000006
-0.000008
0.411090
0.307002
0.174046
0.121056
0.210424
0.388885
1.025605
0.956090
0.869430
0.879777
0.987681
1.049928
0.671911
0.575623
0.569711
0.603907
0.677033
1.408897
1.224879
1.151954
1.188370
1.408751
0.001588
0.000887
0.000150
-0.000227
-0.000261
-0.000140
-0.000094
-0.000008
0.000026
0.000035
-0.000122
-0.000157
-0.000051
0.000032
0.000038
0.000053
-0.000119
1.010961
0.916166
0.743642
0.673562
0.744725
1.070258
-0.004113
-0.000881
0.001853
0.000017
0.006626
1.408646
1.197108
1.161010
1.240127
1.411994
0.000303
0.000529
0.000540
0.000622
0.000378
0.001020
0.575523
0.521060
0.479935
0.494217
0.548938
0.592330
0.369661
0.342111
0.311721
0.310902
0.344385
0.371023
0.417988
0.382793
0.345634
0.352387
0.397143
0.428587
0.201996
0.184967
0.161910
0.156967
0.171774
0.207415
0.461674
0.415984
0.395528
0.399684
0.477833
0.479471
-0.000143
-0.000116
-0.000013
0.000030
0.000044
-0.000256
0.000000
0.000000
-0.000000
-0.000000
-0.000000
0.000000
-0.000036
-0.000019
-0.000000
0.000004
0.000012
-0.001094
-0.000116
0.000681
0.001058
0.000815
-0.000129
0.311946
0.283678
0.264038
0.264152
0.292478
0.311722
0.294695
0.267920
0.240851
0.231216
0.240015
0.300789
-0.026013
-0.029210
-0.026298
-0.013917
-0.003506
-0.008116
-0.052155
0.116102
0.100133
0.049844
0.031741
0.051654
0.089275
0.452273
0.424060
0.376137
0.382319
0.419129
0.460667
0.746902
0.663972
0.619844
0.635407
0.701477
0.758299
1.173592
1.132425
0.990424
0.929732
0.937672
1.011182
1.145667
-0.002735
-0.000948
0.000863
0.001440
0.001008
-0.000721
0.434001
0.405890
0.370840
0.371378
0.418116
0.444856
1.407233
1.170049
1.166596
1.223125
1.411340
-0.024207
-0.019624
-0.006046
-0.000425
-0.002131
-0.033996
1.022295
0.958679
0.873584
0.906258
0.991549
1.020592
-0.022046
-0.015489
-0.002564
0.001602
0.000806
-0.026874
-0.054254
-0.023027
-0.007658
0.008612
0.014524
0.000000
0.000000
0.000000
-0.000000
0.000000
0.000000
0.000000
-0.000000
-0.000000
-0.000000
1.407905
1.205799
1.139424
1.171778
1.408302
0.556399
0.482073
0.463169
0.478914
0.533771
0.576546
0.177996
0.147156
0.079642
0.023701
0.032894
0.131050
0.477670
0.428919
0.399734
0.409967
0.461977
0.495180
0.254308
0.157309
-0.003392
-0.054793
-0.025568
0.196440
0.505840
0.461502
0.419749
0.427843
0.478581
0.520742
0.000023
0.000011
-0.000002
-0.000004
-0.000000
0.000022
0.093672
0.045387
-0.018417
-0.031036
-0.022520
0.054875
-0.008070
-0.003518
0.001015
0.002624
0.001989
-0.003224
-0.000001
-0.000000
0.000000
0.000000
0.000000
-0.000000
0.215063
0.208262
0.183662
0.179241
0.183199
0.199706
0.212152
0.395657
0.361542
0.332019
0.328232
0.411919
0.415073
0.548077
0.495418
0.464868
0.479939
0.555272
0.575976
0.000627
0.000249
-0.000136
-0.000219
-0.000207
0.000562
-0.000000
-0.000000
-0.000000
0.000000
0.000000
-0.000000
0.270190
0.180734
-0.004052
-0.060394
-0.041725
0.036418
0.259980
0.246116
0.215664
0.213731
0.237185
0.257063
0.342647
0.254462
0.130386
0.085164
0.165410
0.317394
0.029664
0.020017
-0.005916
-0.013134
-0.017122
-0.020393
-0.001532
-0.022687
-0.010606
-0.001119
0.002832
0.001605
-0.019134
-0.020819
-0.009025
-0.001653
0.004987
0.004736
-0.001331
0.229798
0.304510
0.196529
-0.007671
-0.055458
-0.036907
0.859682
0.805292
0.720968
0.725493
0.782883
0.864120
0.047991
0.041191
0.009840
-0.010927
-0.003220
0.029631
1.237960
1.167623
1.092574
0.987498
0.956109
1.305788
0.482021
0.376598
0.217330
0.159647
0.261131
0.465776
0.000000
0.000000
-0.000000
-0.000000
-0.000000
-0.000000
0.944189
0.866205
0.783864
0.789029
0.867657
0.954250
-0.004212
-0.001736
0.000975
0.001811
0.001293
-0.001620
1.410709
1.254681
1.178980
1.221792
1.409926
0.002048
0.000482
-0.000084
-0.000138
-0.000177
0.001059
0.000000
0.000000
0.000000
0.000000
-0.000000
-0.000000
0.000000
-0.000001
-0.000002
0.000000
0.000000
0.000000
0.000001
1.408495
1.208536
1.152278
1.231858
1.404488
0.000247
0.000039
-0.000125
-0.000128
-0.000221
0.000245
-0.000157
-0.000095
0.000012
0.000039
0.000033
-0.000208
-0.003212
-0.000043
0.001061
0.001064
0.000694
0.005680
-0.000045
-0.000049
-0.000018
0.000010
0.000028
-0.000110
0.000005
0.000006
0.000001
-0.000001
-0.000002
0.000019
0.899680
0.953325
0.531670
0.002005
-0.062651
0.203890
0.529182
0.481233
0.435325
0.444450
0.502479
-0.000175
-0.000113
0.000010
0.000032
0.000047
-0.000219
-0.010864
-0.004244
0.001277
0.002833
0.002251
-0.001870
0.000001
0.000002
0.000002
0.000001
-0.000000
-0.000000
0.000002
0.001770
0.001122
-0.000039
-0.000313
-0.000332
0.001360
0.966264
0.861006
0.802079
0.808686
0.926079
0.989055
0.071868
0.057927
0.019035
-0.009912
-0.013545
-0.003389
0.043128
-0.000003
-0.000001
0.000000
-0.000000
-0.000002
1.159900
1.032175
0.971164
0.987186
1.133694
1.205913
1.409481
1.231870
1.157664
1.194556
1.408896
0.263244
0.238834
0.221627
0.222804
0.242127
0.266749
-0.000000
-0.000000
0.000000
0.000000
-0.000000
-0.000000
-0.000002
-0.000001
-0.000000
-0.000003
-0.000005
0.836879
0.760526
0.703577
0.724230
0.792259
0.847467
0.643931
0.609701
0.530271
0.522812
0.559825
0.601239
0.651150
0.342584
0.313924
0.293721
0.293134
0.316313
0.338368
0.351800
0.000001
0.000001
0.000001
-0.000001
0.000002
-0.023950
-0.017389
-0.004494
0.000718
-0.000731
-0.029695
-0.000000
-0.000000
-0.000000
0.000000
-0.000000
0.782443
0.706325
0.661024
0.667858
0.695879
0.796570
0.401255
0.342491
0.342430
0.369850
0.405832
-0.002266
-0.005437
-0.004445
-0.009935
-0.006115
0.001541
0.000782
0.000240
0.000207
0.000150
0.001259
0.828001
0.736550
0.694702
0.705305
0.784001
0.840953
0.945609
0.842410
0.785990
0.799028
0.843812
0.966144
0.236529
0.214293
0.200090
0.203848
0.221668
0.237108
-0.000000
-0.000000
0.000000
0.000000
0.000000
0.281456
0.198108
0.103967
0.052226
0.121183
0.259813
-0.008624
-0.002151
0.001782
-0.000620
-0.006545
1.409096
1.209400
1.174730
1.154458
1.251565
1.411828
0.633486
0.537431
0.322616
0.251541
0.389582
0.637754
-0.000000
0.000000
0.000000
0.000000
0.000000
0.000000
0.000000
-0.000000
-0.000000
-0.000000
0.000030
0.000017
-0.000001
-0.000004
-0.000004
-0.000007
0.000010
-0.018213
-0.008594
0.000741
0.003203
0.003927
-0.016887
1.347208
1.311038
0.871289
0.340171
0.035613
0.629486
0.000000
-0.000000
-0.000000
-0.000000
-0.000000
-0.000000
0.952330
0.851879
0.794090
0.819604
0.870261
0.953899
1.154185
1.035041
0.991243
0.998030
1.088619
1.151875
1.201690
0.785110
0.644438
0.231601
-0.039661
0.068913
0.650968
0.691734
0.626979
0.577898
0.591622
0.659349
0.704878
0.000008
0.000015
0.000006
-0.000005
0.000037
0.001778
0.001128
0.000043
-0.000397
-0.000367
0.001819
0.000000
0.000000
-0.000000
-0.000000
-0.000000
0.000000
0.246857
0.212785
0.210314
0.215172
0.246349
0.160598
0.071422
-0.019327
-0.045909
-0.037489
-0.068234
0.573087
0.483299
0.481014
0.527760
0.569409
0.120390
0.058189
-0.009289
-0.037982
-0.024253
0.088044
-0.005111
-0.000366
0.001952
0.001579
0.004010
-0.002343
0.986548
0.881739
0.832009
0.840703
0.947475
1.013846
0.001170
0.000681
-0.000056
-0.000335
-0.000308
0.001060
1.253247
1.154550
1.028601
1.048992
1.175304
-0.027263
-0.017496
-0.006208
0.005143
0.002637
-0.013739
0.000001
0.000000
-0.000000
-0.000000
-0.000000
-0.000001
-0.000000
-0.000000
-0.000000
0.000000
0.000000
0.000000
0.000000
0.000000
-0.000000
-0.000000
-0.000000
0.796820
0.728466
0.663485
0.676950
0.709374
0.832655
0.045549
0.047182
0.006828
-0.012454
-0.023745
-0.029430
0.721486
0.603108
0.097613
-0.119733
-0.054781
0.525910
0.340937
0.290652
0.290678
0.310971
0.342053
1.010196
0.939521
0.843608
0.850881
0.957213
1.023392
0.000000
-0.000000
-0.000000
-0.000000
0.000000
-0.000177
-0.000120
-0.000020
0.000053
0.000062
-0.000198
-0.025295
-0.021519
-0.008015
-0.001586
-0.004059
-0.037118
0.396083
0.354687
0.337370
0.360443
0.393811
0.409761
0.000118
-0.001001
0.000903
0.000616
0.002275
-0.000000
-0.000000
-0.000000
0.000000
0.000000
0.000000
0.726519
0.653191
0.601448
0.625473
0.692986
0.735249
1.158021
1.029417
1.029834
1.158620
1.243656
0.798327
0.705592
0.652924
0.661486
0.749872
0.810673
0.374836
0.346561
0.314452
0.313147
0.344654
0.382329
1.400056
1.240405
1.211608
1.274107
1.418113
0.246968
0.223259
0.173624
0.143030
0.149706
0.240322
1.408066
1.174185
1.151440
1.228086
1.411442
0.001592
0.000980
-0.000033
-0.000367
-0.000322
0.001618
0.800610
0.674847
0.678309
0.719308
0.805407
0.000000
0.000000
-0.000000
-0.000000
0.000000
0.107055
0.083764
0.053191
0.015572
0.016346
0.059942
0.316505
0.299213
0.238370
0.214593
0.286668
1.225021
1.175072
1.051601
0.991125
1.012122
1.147177
0.000017
0.000008
-0.000001
-0.000002
-0.000004
0.000012
0.116957
0.081232
0.047657
0.048826
0.105379
1.410041
1.226377
1.209577
1.409160
1.224758
1.164593
1.033982
1.030653
1.168452
1.208664
0.000005
0.000005
0.000002
-0.000001
-0.000004
0.000012
1.031218
0.965606
0.861984
0.865873
0.946277
1.029377
0.080503
0.042057
0.008555
0.043400
0.001398
0.000860
-0.000135
-0.000340
-0.000333
0.001303
0.558213
0.452821
0.266008
0.203778
0.320373
0.553187
0.212044
0.180353
0.182759
0.208768
0.016487
0.011160
-0.003055
-0.009127
-0.009474
-0.015708
0.885969
0.833544
0.704030
0.678008
0.756666
0.925418
1.233847
1.154312
1.007349
1.029935
1.160247
1.190531
1.145903
1.015274
0.950546
0.967739
1.006534
1.151776
-0.009341
-0.003256
0.001251
0.002260
0.001476
0.004134
-0.027986
-0.023541
-0.010211
-0.003040
-0.009059
-0.036349
0.658635
0.592876
0.550278
0.575938
0.665902
0.072726
0.045565
0.001982
-0.009809
0.014979
0.366367
0.234337
-0.028797
-0.015391
0.175470
0.167902
0.149235
0.107450
0.065997
0.076749
0.161365
-0.000052
-0.000097
0.000002
0.000027
0.000056
1.196243
1.152416
1.024314
0.960668
0.963292
1.028133
1.156653
0.000000
-0.000000
-0.000000
0.000000
0.000000
0.000000
0.138401
0.113661
0.103741
0.114898
0.140962
1.005432
0.967783
0.844152
0.858884
0.967657
1.029825
1.408399
1.191009
1.158417
1.231457
1.411566
0.029365
-0.006899
-0.026228
-0.017067
-0.008403
-0.105046
0.603986
0.568683
0.529937
0.504397
0.529618
0.608373
0.417276
0.371901
0.345210
0.346446
0.375654
0.423478
0.000001
0.000000
-0.000000
-0.000000
0.000000
-0.000001
-0.006022
-0.002607
0.000976
0.002225
0.001531
-0.002480
0.247122
0.231093
0.144520
0.055514
0.039196
0.093893
0.210920
-0.032577
-0.026449
-0.012802
0.002960
0.000737
-0.037505
0.225602
0.205471
0.170526
0.153936
0.176247
0.227695
0.841827
0.798256
0.696115
0.704145
0.799369
0.858883
-0.000000
0.000000
0.000000
0.000000
0.000000
0.000000
0.961468
0.804560
0.806718
0.859795
0.965937
0.144445
0.125154
0.036125
-0.000492
0.043887
-0.000009
0.000000
0.000002
0.000000
0.000009
0.000743
0.000278
0.000021
-0.000156
-0.000100
-0.000188
0.529648
0.502041
0.445750
0.419418
0.423736
0.453151
0.519944
0.050518
0.031344
0.001293
-0.006613
0.009396
0.719267
0.676955
0.605333
0.610759
0.645080
0.723327
1.668320
0.485238
-0.331962
0.554423
0.532475
0.483414
0.462271
0.474298
0.545569
0.549800
-0.000000
-0.000000
0.000000
0.000000
-0.000000
0.461399
0.412300
0.393467
0.413160
0.460565
0.480304
0.289471
0.247694
0.247269
0.260103
0.290335
1.440282
1.272181
0.710851
0.591987
1.693589
0.000002
0.000006
0.000002
-0.000001
-0.000003
0.000022
0.700792
0.638129
0.598667
0.621788
0.673041
0.721807
0.613984
0.555614
0.531079
0.552258
0.609808
0.630516
-0.000142
-0.000116
-0.000019
0.000033
0.000053
-0.000230
0.001965
0.001201
0.000038
-0.000403
-0.000419
0.001666
0.358991
0.322210
0.082632
-0.077207
0.008239
-0.299032
-0.014357
-0.002942
0.002389
0.003090
0.004494
-0.010813
0.285487
0.257900
0.238169
0.237119
0.262784
0.282524
0.781263
0.725220
0.645487
0.651894
0.727525
0.788422
-0.000000
-0.000000
0.000000
-0.000000
1.168817
1.031917
0.947873
0.954822
1.027105
1.152570
0.207785
0.121938
-0.005084
-0.049591
-0.022547
0.158133
0.001247
0.000764
0.000058
-0.000234
-0.000267
0.000733
0.311022
0.290301
0.260577
0.258044
0.286411
0.310610
0.176017
0.155833
0.076574
0.046907
0.078455
0.154604
-0.000213
-0.000127
0.000028
0.000039
0.000062
-0.000165
0.705588
0.610579
0.386484
0.227173
0.314948
0.712462
0.748551
0.676978
0.310211
0.076503
0.216225
0.697855
1.409900
1.235006
1.164509
1.202624
1.409003
-0.012903
-0.021620
-0.023950
-0.022970
-0.007911
-0.006243
-0.083021
0.521357
0.453608
0.460710
0.506820
0.560699
-0.000000
-0.000000
0.000000
0.000000
0.000000
-0.000000
0.000915
0.000480
-0.000046
-0.000287
-0.000238
0.000864
0.001322
0.000065
-0.000244
-0.000371
0.000520
-0.003438
-0.007149
-0.008063
-0.005351
-0.016764
-0.010968
0.000590
0.001357
0.000934
-0.000038
-0.000591
0.004168
0.000000
0.000000
-0.000000
-0.000000
-0.000000
-0.000000
-0.008261
-0.009799
-0.005630
-0.002628
-0.000579
-0.007657
0.648090
0.577084
0.537223
0.552102
0.616853
0.662718
0.156072
0.135934
0.138501
0.151899
0.159430
0.343915
0.311086
0.287228
0.283792
0.313601
0.346191
1.230494
1.147725
1.012931
1.022332
1.153625
0.480941
0.403159
0.406164
0.434432
0.481137
-0.000057
-0.000065
0.000001
0.000007
0.000022
-0.000162
0.164580
0.088876
-0.008642
-0.043719
-0.022539
0.122136
0.000000
0.000000
-0.000000
0.000000
0.924825
0.810797
0.753247
0.759503
0.841824
0.939048
1.163600
0.966419
0.967480
1.031248
1.164863
1.107267
1.056274
0.728005
0.606464
1.033438
0.865999
0.790093
0.729721
0.735137
0.828918
0.880144
0.599346
0.561324
0.507729
0.519652
0.576730
0.625725
0.155107
0.137592
0.113979
0.089895
0.109212
0.154357
0.695005
0.666528
0.576757
0.560529
0.574462
0.650137
0.704378
 
