# vtk DataFile Version 3.0 
Date: 3/9/2016   Time: 10:25
ASCII 
DATASET UNSTRUCTURED_GRID 
 
POINTS 1473 float 
0.122977 0.893246 0.000000 
0.169562 0.892641 0.000000 
0.184707 0.933361 0.000000 
0.135865 0.958952 0.000000 
0.107521 0.930532 0.000000 
0.330870 0.944935 0.000000 
0.367838 0.929539 0.000000 
0.394438 0.945411 0.000000 
0.393899 1.000000 0.000000 
0.330705 1.000000 0.000000 
0.508744 0.326634 0.000000 
0.537037 0.325083 0.000000 
0.565059 0.364686 0.000000 
0.553383 0.394463 0.000000 
0.514737 0.401761 0.000000 
0.489012 0.372862 0.000000 
0.727811 0.070363 0.000000 
0.772702 0.057942 0.000000 
0.793472 0.071009 0.000000 
0.794715 0.114373 0.000000 
0.762269 0.133538 0.000000 
0.726380 0.111680 0.000000 
0.000000 0.693660 0.000000 
0.044876 0.694212 0.000000 
0.067515 0.728566 0.000000 
0.054642 0.757502 0.000000 
0.000000 0.759509 0.000000 
0.928783 0.411648 0.000000 
0.943335 0.380897 0.000000 
1.000000 0.380942 0.000000 
1.000000 0.442636 0.000000 
0.945530 0.443624 0.000000 
0.719269 0.000000 0.000000 
0.771953 0.000000 0.000000 
0.772702 0.057942 0.000000 
0.727811 0.070363 0.000000 
0.715977 0.060043 0.000000 
0.932536 0.538027 0.000000 
0.948530 0.507000 0.000000 
1.000000 0.505878 0.000000 
1.000000 0.571306 0.000000 
0.951942 0.571191 0.000000 
0.460605 0.446615 0.000000 
0.501238 0.439821 0.000000 
0.526171 0.469359 0.000000 
0.512336 0.507253 0.000000 
0.475736 0.514393 0.000000 
0.448395 0.483259 0.000000 
0.111630 0.181741 0.000000 
0.136484 0.169093 0.000000 
0.170657 0.189975 0.000000 
0.165182 0.236166 0.000000 
0.124688 0.245295 0.000000 
0.103871 0.225656 0.000000 
0.258947 0.000000 0.000000 
0.314673 0.000000 0.000000 
0.318028 0.061696 0.000000 
0.297421 0.073032 0.000000 
0.256907 0.058938 0.000000 
0.000000 0.260338 0.000000 
0.050294 0.256161 0.000000 
0.071980 0.296556 0.000000 
0.060065 0.321169 0.000000 
0.000000 0.319745 0.000000 
0.267647 0.943923 0.000000 
0.304071 0.928795 0.000000 
0.330870 0.944935 0.000000 
0.330705 1.000000 0.000000 
0.265788 1.000000 0.000000 
0.531239 0.789704 0.000000 
0.565435 0.780364 0.000000 
0.595287 0.807588 0.000000 
0.580792 0.853394 0.000000 
0.553760 0.861215 0.000000 
0.519945 0.822496 0.000000 
0.886180 0.476899 0.000000 
0.930495 0.474459 0.000000 
0.948530 0.507000 0.000000 
0.932536 0.538027 0.000000 
0.891523 0.540744 0.000000 
0.871703 0.509629 0.000000 
0.129739 0.734962 0.000000 
0.169873 0.715697 0.000000 
0.204390 0.740300 0.000000 
0.191246 0.786002 0.000000 
0.176964 0.791561 0.000000 
0.131059 0.764725 0.000000 
0.200563 0.941150 0.000000 
0.237892 0.925739 0.000000 
0.267647 0.943923 0.000000 
0.265788 1.000000 0.000000 
0.206004 1.000000 0.000000 
0.000000 0.630186 0.000000 
0.058306 0.631068 0.000000 
0.068980 0.655734 0.000000 
0.044876 0.694212 0.000000 
0.000000 0.693660 0.000000 
0.760200 0.425398 0.000000 
0.803689 0.421484 0.000000 
0.823342 0.449185 0.000000 
0.809110 0.487484 0.000000 
0.768154 0.491830 0.000000 
0.746996 0.465828 0.000000 
0.313559 0.278285 0.000000 
0.349467 0.267095 0.000000 
0.378326 0.297032 0.000000 
0.366563 0.335646 0.000000 
0.330606 0.341251 0.000000 
0.304222 0.314970 0.000000 
0.469020 0.071213 0.000000 
0.496066 0.057874 0.000000 
0.529878 0.071944 0.000000 
0.529544 0.120421 0.000000 
0.494226 0.135656 0.000000 
0.467170 0.117631 0.000000 
0.425262 0.247664 0.000000 
0.456469 0.234814 0.000000 
0.492378 0.260569 0.000000 
0.484565 0.301716 0.000000 
0.441569 0.311362 0.000000 
0.416904 0.287029 0.000000 
0.692580 0.131255 0.000000 
0.726380 0.111680 0.000000 
0.762269 0.133538 0.000000 
0.760959 0.168094 0.000000 
0.728756 0.190270 0.000000 
0.693430 0.170557 0.000000 
0.392892 0.424907 0.000000 
0.438603 0.419848 0.000000 
0.460605 0.446615 0.000000 
0.448395 0.483259 0.000000 
0.409148 0.492412 0.000000 
0.382145 0.460867 0.000000 
0.626937 0.693148 0.000000 
0.668278 0.684449 0.000000 
0.691924 0.712226 0.000000 
0.681846 0.749689 0.000000 
0.640563 0.757711 0.000000 
0.615907 0.731857 0.000000 
0.831095 0.825108 0.000000 
0.868614 0.825056 0.000000 
0.887789 0.859296 0.000000 
0.871800 0.887966 0.000000 
0.822632 0.889310 0.000000 
0.808163 0.869524 0.000000 
0.394438 0.945411 0.000000 
0.429531 0.930783 0.000000 
0.458377 0.948596 0.000000 
0.456411 1.000000 0.000000 
0.393899 1.000000 0.000000 
0.705386 0.471083 0.000000 
0.746996 0.465828 0.000000 
0.768154 0.491830 0.000000 
0.754219 0.531674 0.000000 
0.716316 0.537877 0.000000 
0.691291 0.507899 0.000000 
0.525900 0.198588 0.000000 
0.559349 0.181421 0.000000 
0.589619 0.197269 0.000000 
0.594326 0.234811 0.000000 
0.556509 0.262961 0.000000 
0.524955 0.246179 0.000000 
0.556509 0.262961 0.000000 
0.594326 0.234811 0.000000 
0.627910 0.251232 0.000000 
0.630113 0.299338 0.000000 
0.614183 0.310724 0.000000 
0.561909 0.292322 0.000000 
0.367659 0.709670 0.000000 
0.402923 0.674711 0.000000 
0.416442 0.674598 0.000000 
0.443868 0.702566 0.000000 
0.434874 0.743968 0.000000 
0.394482 0.756056 0.000000 
0.371078 0.739844 0.000000 
0.857810 0.069078 0.000000 
0.888262 0.050890 0.000000 
0.931411 0.071479 0.000000 
0.928936 0.098816 0.000000 
0.884752 0.123395 0.000000 
0.861499 0.111170 0.000000 
0.398307 0.182063 0.000000 
0.420876 0.167932 0.000000 
0.463764 0.194045 0.000000 
0.456469 0.234814 0.000000 
0.425262 0.247664 0.000000 
0.391764 0.222283 0.000000 
0.220313 0.504456 0.000000 
0.263112 0.490440 0.000000 
0.290540 0.516787 0.000000 
0.282685 0.554261 0.000000 
0.246798 0.567346 0.000000 
0.214697 0.541920 0.000000 
0.064880 0.508842 0.000000 
0.075919 0.482484 0.000000 
0.124637 0.472323 0.000000 
0.147316 0.496354 0.000000 
0.142776 0.531289 0.000000 
0.117136 0.546161 0.000000 
0.071937 0.528498 0.000000 
0.652942 0.514028 0.000000 
0.691291 0.507899 0.000000 
0.716316 0.537877 0.000000 
0.702721 0.574626 0.000000 
0.665894 0.582673 0.000000 
0.639461 0.553207 0.000000 
0.412549 0.065997 0.000000 
0.436183 0.055303 0.000000 
0.469020 0.071213 0.000000 
0.467170 0.117631 0.000000 
0.425925 0.132656 0.000000 
0.404155 0.111163 0.000000 
0.000000 0.000000 0.000000 
0.066350 0.000000 0.000000 
0.066996 0.051431 0.000000 
0.049860 0.064704 0.000000 
0.000000 0.058433 0.000000 
0.539210 0.537410 0.000000 
0.575572 0.531377 0.000000 
0.601297 0.560353 0.000000 
0.588413 0.599040 0.000000 
0.549396 0.606293 0.000000 
0.523602 0.578013 0.000000 
0.111038 0.667902 0.000000 
0.132193 0.654665 0.000000 
0.173778 0.675700 0.000000 
0.169873 0.715697 0.000000 
0.129739 0.734962 0.000000 
0.109485 0.720089 0.000000 
0.642547 0.445523 0.000000 
0.682010 0.439942 0.000000 
0.705386 0.471083 0.000000 
0.691291 0.507899 0.000000 
0.652942 0.514028 0.000000 
0.628708 0.486407 0.000000 
0.135865 0.958952 0.000000 
0.184707 0.933361 0.000000 
0.200563 0.941150 0.000000 
0.206004 1.000000 0.000000 
0.133801 1.000000 0.000000 
0.707286 0.950754 0.000000 
0.750682 0.928014 0.000000 
0.769229 0.941246 0.000000 
0.769597 1.000000 0.000000 
0.708120 1.000000 0.000000 
0.521815 0.954948 0.000000 
0.562492 0.930283 0.000000 
0.582119 0.936699 0.000000 
0.586470 1.000000 0.000000 
0.523130 1.000000 0.000000 
0.000000 0.449963 0.000000 
0.055815 0.445024 0.000000 
0.075919 0.482484 0.000000 
0.064880 0.508842 0.000000 
0.000000 0.504928 0.000000 
0.322966 0.403849 0.000000 
0.376808 0.402737 0.000000 
0.392892 0.424907 0.000000 
0.382145 0.460867 0.000000 
0.340252 0.471972 0.000000 
0.312601 0.439478 0.000000 
0.693791 0.248802 0.000000 
0.730314 0.223822 0.000000 
0.761737 0.242909 0.000000 
0.761833 0.287055 0.000000 
0.742455 0.300756 0.000000 
0.697376 0.280226 0.000000 
0.378326 0.297032 0.000000 
0.416904 0.287029 0.000000 
0.441569 0.311362 0.000000 
0.431739 0.353903 0.000000 
0.388631 0.360181 0.000000 
0.366563 0.335646 0.000000 
0.426879 0.559111 0.000000 
0.461666 0.551598 0.000000 
0.490221 0.582886 0.000000 
0.471186 0.625808 0.000000 
0.444106 0.628321 0.000000 
0.412819 0.594496 0.000000 
0.358703 0.235711 0.000000 
0.391764 0.222283 0.000000 
0.425262 0.247664 0.000000 
0.416904 0.287029 0.000000 
0.378326 0.297032 0.000000 
0.349467 0.267095 0.000000 
0.891523 0.540744 0.000000 
0.932536 0.538027 0.000000 
0.951942 0.571191 0.000000 
0.931883 0.605783 0.000000 
0.897114 0.603774 0.000000 
0.876889 0.572587 0.000000 
0.631464 0.377639 0.000000 
0.672352 0.369583 0.000000 
0.695815 0.407244 0.000000 
0.682010 0.439942 0.000000 
0.642547 0.445523 0.000000 
0.619481 0.419552 0.000000 
0.497069 0.653678 0.000000 
0.536846 0.646175 0.000000 
0.562076 0.673701 0.000000 
0.550628 0.712559 0.000000 
0.511569 0.721683 0.000000 
0.485528 0.693708 0.000000 
0.815331 0.696223 0.000000 
0.860449 0.690017 0.000000 
0.880592 0.729717 0.000000 
0.866750 0.756510 0.000000 
0.824457 0.760834 0.000000 
0.802265 0.728054 0.000000 
0.657603 0.069394 0.000000 
0.665980 0.061595 0.000000 
0.715977 0.060043 0.000000 
0.727811 0.070363 0.000000 
0.726380 0.111680 0.000000 
0.692580 0.131255 0.000000 
0.659845 0.113051 0.000000 
0.452498 0.376564 0.000000 
0.489012 0.372862 0.000000 
0.514737 0.401761 0.000000 
0.501238 0.439821 0.000000 
0.460605 0.446615 0.000000 
0.438603 0.419848 0.000000 
0.330606 0.341251 0.000000 
0.366563 0.335646 0.000000 
0.388631 0.360181 0.000000 
0.376808 0.402737 0.000000 
0.322966 0.403849 0.000000 
0.313767 0.388150 0.000000 
0.823342 0.449185 0.000000 
0.867460 0.445920 0.000000 
0.886180 0.476899 0.000000 
0.871703 0.509629 0.000000 
0.829344 0.513478 0.000000 
0.809110 0.487484 0.000000 
0.679769 0.890287 0.000000 
0.707863 0.876754 0.000000 
0.747222 0.900234 0.000000 
0.750682 0.928014 0.000000 
0.707286 0.950754 0.000000 
0.675291 0.930276 0.000000 
0.302299 0.698906 0.000000 
0.325729 0.686844 0.000000 
0.367659 0.709670 0.000000 
0.371078 0.739844 0.000000 
0.327338 0.763012 0.000000 
0.296169 0.741573 0.000000 
0.592268 0.071827 0.000000 
0.610066 0.059665 0.000000 
0.657603 0.069394 0.000000 
0.659845 0.113051 0.000000 
0.623728 0.134772 0.000000 
0.593307 0.118294 0.000000 
0.514737 0.401761 0.000000 
[...]
CELL_DATA 256
FIELD FieldData 1
material 1 256 int
1
1
1
1
1
1
1
1
1
1
1
1
1
1
1
1
1
1
1
1
1
1
1
1
1
1
1
1
1
1
1
1
1
1
1
1
1
1
1
1
1
1
1
1
1
1
1
1
1
1
1
1
1
1
1
1
1
1
1
1
1
1
1
1
1
1
1
1
1
1
1
1
1
1
1
1
1
1
1
1
1
1
1
1
1
1
1
1
1
1
1
1
1
1
1
1
1
1
1
1
1
1
1
1
1
1
1
1
1
1
1
1
1
1
1
1
1
1
1
1
1
1
1
1
1
1
1
1
1
1
1
1
1
1
1
1
1
1
1
1
1
1
1
1
1
1
1
1
1
1
1
1
1
1
1
1
1
1
1
1
1
1
1
1
1
1
1
1
1
1
1
1
1
1
1
1
1
1
1
1
1
1
1
1
1
1
1
1
1
1
1
1
1
1
1
1
1
1
1
1
1
1
1
1
1
1
1
1
1
1
1
1
1
1
1
1
1
1
1
1
1
1
1
1
1
1
1
1
1
1
1
1
1
1
1
1
1
1
1
1
1
1
1
1
1
1
1
1
1
1
1
1
1
1
1
1
POINT_DATA 1473 SCALARS flux_g1 double 
LOOKUP_TABLE   default 
-0.007063
-0.005218
0.000270
-0.007767
-0.025670
0.000003
0.000001
0.000000
-0.000000
0.000001
0.000000
0.000000
0.000000
0.000000
0.000000
0.000001
0.000000
0.000000
0.000000
0.000000
0.000000
0.000000
1.217149
0.370982
0.212801
0.182282
1.184538
-0.000000
-0.000000
0.000000
0.000000
0.000000
0.000000
0.000000
0.000000
0.000000
0.000000
-0.000000
-0.000000
0.000000
0.000000
0.000000
0.000001
0.000001
0.000000
-0.000000
0.000001
0.000002
0.045992
0.023032
0.011438
0.006564
0.036207
0.056424
0.000536
0.000136
0.000123
0.000201
0.000660
1.179930
0.316598
0.184871
0.127703
1.168065
-0.000074
-0.000014
0.000003
0.000002
0.000037
0.000000
0.000000
-0.000000
-0.000000
-0.000000
0.000000
0.000000
0.000000
-0.000000
-0.000000
-0.000000
0.000000
0.025661
0.008761
0.004384
0.003590
0.008681
0.023758
0.000801
0.000106
-0.000123
0.000055
-0.000897
1.162851
0.227988
0.193915
0.254538
1.267300
0.000000
0.000000
-0.000000
-0.000000
-0.000000
0.000000
0.000102
0.000043
0.000024
0.000022
0.000081
0.000141
0.000001
0.000001
0.000000
0.000000
0.000001
0.000001
0.000005
0.000002
0.000001
0.000000
0.000003
0.000006
0.000000
0.000000
0.000000
0.000000
0.000000
0.000000
0.000011
0.000004
0.000002
0.000001
0.000009
0.000016
0.000000
0.000000
0.000000
-0.000000
-0.000000
0.000000
0.000000
0.000000
-0.000000
-0.000000
-0.000000
0.000000
0.000000
-0.000000
-0.000000
0.000000
-0.000000
0.000000
0.000000
-0.000000
-0.000000
-0.000000
0.000000
0.000000
0.000000
0.000000
0.000000
0.000000
0.000000
0.000000
0.000000
0.000000
0.000000
0.000000
0.000000
-0.000024
-0.000008
-0.000005
0.000000
0.000004
0.000008
-0.000011
0.000000
0.000000
0.000000
-0.000000
0.000000
0.000000
0.000010
0.000005
0.000002
0.000002
0.000006
0.000009
0.001728
0.000555
0.000350
0.000222
0.001164
0.001832
0.139883
0.097066
0.033051
0.023427
0.013980
0.041161
0.146269
0.000000
0.000000
-0.000000
-0.000000
-0.000000
0.000000
0.000006
0.000003
0.000002
0.000001
0.000005
0.000008
1.119206
0.173299
0.180313
0.206318
1.247129
-0.000000
-0.000000
0.000000
0.000000
0.000000
-0.000000
0.053300
0.026388
0.009394
0.005865
0.031887
0.040152
-0.000000
-0.000000
0.000000
0.000000
0.000000
-0.000000
-0.002570
0.000768
0.001513
-0.001437
0.009719
0.000000
0.000000
-0.000000
0.000000
-0.000000
0.000000
0.000000
-0.000000
-0.000000
-0.000000
1.151395
0.262236
0.172926
0.086601
1.151771
0.000070
0.000022
0.000017
0.000011
0.000070
0.000108
0.000000
0.000000
0.000000
-0.000000
-0.000000
0.000000
0.000017
0.000007
0.000004
0.000002
0.000013
0.000028
0.000003
0.000000
-0.000001
-0.000002
-0.000004
0.000002
0.000025
0.000012
0.000006
0.000005
0.000021
0.000037
-0.000000
-0.000000
0.000000
0.000000
0.000000
-0.000000
0.000000
-0.000000
-0.000000
-0.000000
-0.000000
-0.000000
0.000000
0.000000
0.000000
-0.000000
-0.000000
0.000001
0.000000
0.000000
-0.000000
-0.000000
-0.000000
0.000000
0.000000
0.000000
0.000000
0.000000
0.000000
0.000000
0.000000
0.000002
0.000001
0.000000
0.000000
0.000002
0.000003
0.000072
0.000032
0.000017
0.000011
0.000071
0.000140
-0.000000
-0.000000
0.000000
0.000000
0.000000
-0.000000
-0.000000
-0.000000
0.000000
0.000000
0.000000
-0.000000
0.000072
0.000001
-0.000027
-0.000020
-0.000070
-0.000144
0.000000
0.000000
0.000000
0.000000
0.000000
0.000000
0.000000
0.000000
0.000000
-0.000000
0.000000
0.000000
-0.000000
-0.000000
-0.000000
-0.000000
-0.000000
-0.000000
-0.000000
-0.000000
-0.000000
0.000000
0.000000
0.000000
-0.000000
0.000278
0.000104
0.000037
-0.000078
-0.000295
0.000589
0.000009
0.000012
0.000003
-0.000003
-0.000008
-0.000015
0.007923
0.003810
0.001573
0.001232
0.003607
0.006757
0.000000
-0.000000
-0.000000
-0.000000
-0.000000
-0.000000
0.299938
0.130836
0.081973
0.037580
0.047225
0.173701
0.000006
0.000003
0.000001
0.000000
0.000005
0.000010
0.000000
0.000000
-0.000000
-0.000000
-0.000000
0.000000
0.020457
0.008206
0.003886
0.002489
0.010485
0.018101
0.000000
0.000000
-0.000000
-0.000000
-0.000000
0.000000
1.235822
0.412244
0.222538
0.212385
1.210572
0.000000
-0.000000
-0.000000
-0.000000
-0.000000
0.000000
0.000000
0.000000
0.000000
0.000000
-0.000000
-0.000000
0.000000
0.000000
0.000000
-0.000000
-0.000000
-0.000000
-0.000000
1.164664
0.274292
0.168571
0.218355
1.239350
-0.000000
0.000000
0.000000
0.000000
0.000000
-0.000000
0.000000
0.000000
-0.000000
-0.000000
-0.000000
0.000000
0.000014
0.000001
-0.000001
-0.000002
-0.000006
-0.000005
0.000000
0.000000
0.000000
-0.000000
-0.000000
0.000000
-0.000000
-0.000000
0.000000
0.000000
0.000000
-0.000000
0.065240
0.032224
0.010143
-0.005087
-0.012738
-0.003091
0.000056
0.000021
0.000008
0.000006
0.000026
0.000000
0.000000
-0.000000
-0.000000
-0.000000
0.000000
0.000001
0.000001
0.000000
-0.000000
-0.000001
0.000003
-0.000000
-0.000000
-0.000000
0.000000
0.000000
-0.000000
0.000000
-0.000000
-0.000000
0.000000
0.000000
0.000000
-0.000001
0.021090
0.007174
0.005192
0.002815
0.021011
0.023550
0.000000
0.000000
-0.000000
-0.000000
-0.000000
-0.000000
-0.000000
0.000000
0.000000
-0.000000
-0.000000
0.000000
0.143554
0.056379
0.034981
0.013544
0.129849
0.244779
1.198977
0.333784
0.198006
0.146531
1.172590
0.000000
0.000000
0.000000
0.000000
0.000000
0.000000
-0.000000
0.000000
0.000000
0.000000
-0.000000
0.000000
0.000000
0.000000
-0.000000
0.000000
0.000000
0.005790
0.002330
0.001241
0.000812
0.003806
0.006475
0.000387
0.000203
0.000065
0.000046
0.000076
0.000256
0.000364
0.000001
0.000000
0.000000
0.000000
0.000000
0.000001
0.000001
-0.000000
-0.000000
0.000000
-0.000000
0.000000
-0.000000
-0.000000
0.000000
0.000000
0.000000
-0.000000
-0.000000
-0.000000
-0.000000
0.000000
0.000000
0.003055
0.000997
0.000610
0.000492
0.001017
0.002504
0.000003
0.000001
0.000001
0.000001
0.000003
-0.000000
-0.000000
0.000000
-0.000000
-0.000000
0.000000
0.000000
-0.000000
-0.000000
-0.000000
0.000000
0.005385
0.001618
0.001167
0.000775
0.003575
0.005173
0.019982
0.006297
0.004112
0.002984
0.007641
0.020911
0.000000
0.000000
0.000000
0.000000
0.000000
0.000000
0.000000
0.000000
0.000000
-0.000000
0.000000
0.000000
0.000000
0.000000
-0.000000
0.000000
0.000000
-0.000000
0.000000
0.000000
0.000000
-0.000000
1.174371
0.242182
0.272509
0.105427
0.304939
1.266731
0.000118
0.000050
0.000021
0.000008
0.000082
0.000160
-0.000000
-0.000000
0.000000
-0.000000
-0.000000
-0.000000
-0.000000
0.000000
0.000000
0.000000
-0.000000
-0.000000
0.000000
0.000000
0.000000
0.000000
-0.000000
-0.000000
-0.000000
0.000000
0.000000
0.000000
-0.000000
0.318697
0.170195
0.067502
0.012395
-0.047600
0.092272
-0.000000
-0.000000
0.000000
0.000000
0.000000
-0.000000
0.023464
0.007703
0.004232
0.002530
0.009044
0.021747
0.146633
0.054800
0.037859
0.015915
0.053945
0.147409
0.243798
0.003441
0.001437
0.000208
-0.000727
-0.000563
0.003120
0.000857
0.000308
0.000148
0.000109
0.000533
0.000791
-0.000000
-0.000000
-0.000000
0.000000
-0.000000
-0.000000
-0.000000
-0.000000
0.000000
0.000000
-0.000000
0.000000
0.000000
-0.000000
-0.000000
-0.000000
0.000000
0.000000
0.000000
0.000000
0.000000
0.000000
-0.000034
-0.000100
-0.000077
0.000007
-0.000078
-0.000678
0.000110
0.000020
0.000019
0.000044
0.000117
0.000000
-0.000000
-0.000000
-0.000000
-0.000000
-0.000000
0.000000
0.000000
0.000000
-0.000000
0.000000
0.000000
0.027327
0.009656
0.007511
0.004991
0.026195
0.033656
-0.000000
-0.000000
0.000000
0.000000
0.000000
-0.000000
0.377709
0.155402
0.061901
0.045440
0.183117
-0.000032
0.000020
0.000019
-0.000000
-0.000004
0.000237
0.000000
0.000000
0.000000
-0.000000
-0.000000
0.000000
-0.000000
0.000000
-0.000000
-0.000000
-0.000000
-0.000000
-0.000000
-0.000000
0.000000
0.000000
0.000000
0.002965
0.001066
0.000557
0.000544
0.001441
0.002618
-0.000000
-0.000000
-0.000000
-0.000000
-0.000000
-0.000000
0.005554
0.003399
-0.000335
-0.002717
-0.005478
0.008442
0.000001
0.000000
0.000000
0.000000
0.000001
0.040284
0.018304
0.007903
0.005873
0.028951
0.034508
0.000000
-0.000000
-0.000000
-0.000000
0.000000
0.000000
0.000000
0.000000
-0.000000
-0.000000
0.000000
-0.000001
-0.000000
0.000000
0.000000
0.000000
-0.000001
0.000002
0.000001
0.000001
0.000001
0.000003
0.000003
0.000000
0.000000
0.000000
-0.000000
-0.000000
-0.000000
-0.000000
-0.000000
0.000000
0.000000
0.000000
0.001355
0.000478
0.000250
0.000228
0.001016
0.001326
0.145666
0.066098
0.039904
0.175117
0.332997
0.003423
0.001014
0.000624
0.000292
0.002253
0.003408
0.000001
0.000001
0.000000
0.000000
0.000001
0.000002
1.199940
0.337131
0.196674
0.211083
1.211375
0.000000
0.000000
0.000000
0.000000
0.000000
0.000000
1.145464
0.158470
0.186153
0.218479
1.251763
-0.000000
-0.000000
0.000000
0.000000
0.000000
-0.000000
0.003218
0.000649
0.000734
0.001228
0.003827
0.000000
-0.000000
-0.000000
-0.000000
0.000000
0.000000
0.000000
0.000000
-0.000000
-0.000000
0.000000
0.000000
0.000000
0.000000
0.000000
0.000000
0.301254
0.168725
0.070793
0.042687
0.022880
0.143332
-0.000000
-0.000000
0.000000
0.000000
0.000000
-0.000000
0.000000
0.000000
0.000000
0.000000
0.000000
1.213652
0.323927
0.254817
1.181933
0.292168
0.162266
0.063134
0.041894
0.191423
0.228233
-0.000000
-0.000000
-0.000000
0.000000
0.000000
-0.000000
0.051675
0.024444
0.009703
0.007192
0.025152
0.039543
0.000000
0.000000
-0.000000
0.000000
-0.000000
-0.000000
0.000000
0.000000
0.000000
-0.000000
0.000028
0.000012
0.000005
0.000001
0.000020
0.000043
0.000000
0.000000
0.000000
0.000000
-0.000000
-0.000000
-0.000000
-0.000000
-0.000000
-0.000000
0.006979
0.003299
0.001434
0.001462
0.004475
0.006818
0.307021
0.140913
0.049896
0.038579
0.170250
0.193073
0.116816
0.044555
0.028621
0.020768
0.038829
0.145154
0.000004
0.000002
0.000000
-0.000001
-0.000003
0.000007
-0.000003
-0.000001
0.000000
0.000001
0.000001
-0.000006
0.000478
0.000168
0.000088
0.000132
0.000437
0.000000
0.000000
-0.000000
-0.000000
-0.000000
0.000059
0.000011
-0.000015
-0.000029
-0.000003
0.000000
0.000000
0.000000
0.000000
0.000000
0.000000
0.000000
0.000000
-0.000000
-0.000000
-0.000000
0.203646
0.127212
0.047508
0.032405
0.020951
0.049595
0.151877
-0.000000
-0.000000
-0.000000
0.000000
0.000000
0.000000
0.000000
0.000000
0.000000
0.000000
0.000000
0.039811
0.024666
0.007628
0.004500
0.029275
0.043607
1.155811
0.210990
0.192744
0.230220
1.253867
-0.000898
-0.000495
-0.000147
0.000267
0.000503
-0.001991
0.000218
0.000110
0.000063
0.000031
0.000058
0.000174
0.000004
0.000001
0.000001
0.000001
0.000002
0.000004
0.000000
0.000000
0.000000
-0.000000
-0.000000
0.000000
0.000000
0.000000
-0.000000
-0.000000
-0.000000
0.000000
0.000000
0.000000
0.000000
0.000000
-0.000000
0.000000
0.000000
-0.000049
-0.000006
0.000002
0.000010
0.000025
0.000023
0.000000
0.000000
0.000000
0.000000
0.000000
0.000000
0.005612
0.002957
0.001065
0.000766
0.004526
0.005321
-0.000000
-0.000000
-0.000000
0.000000
0.000000
0.000000
0.019727
0.004002
0.004266
0.007403
0.025116
0.000000
0.000000
-0.000000
-0.000000
-0.000000
-0.000000
-0.000000
0.000000
0.000000
-0.000000
-0.000002
-0.000000
0.000000
0.000000
0.000000
0.000001
0.000058
0.000027
0.000010
0.000006
0.000004
0.000012
0.000032
0.000000
-0.000000
-0.000000
-0.000000
-0.000000
0.001323
0.000658
0.000256
0.000210
0.000472
0.001088
1.224435
0.066722
-0.202151
0.493961
0.000050
0.000019
0.000010
0.000006
0.000037
0.000070
0.000000
-0.000000
-0.000000
0.000000
-0.000000
0.000011
0.000004
0.000003
0.000002
0.000014
0.000017
0.000000
0.000000
0.000000
0.000000
0.000000
1.181119
0.323608
0.151530
0.013834
1.221291
-0.000000
-0.000000
-0.000000
0.000000
0.000000
-0.000000
0.000866
0.000318
0.000165
0.000132
0.000512
0.000875
0.000232
0.000081
0.000041
0.000028
0.000148
0.000265
0.000000
0.000000
0.000000
-0.000000
-0.000000
0.000000
-0.000000
-0.000000
-0.000000
0.000000
0.000000
-0.000000
0.004196
-0.000744
-0.014970
-0.015620
0.024977
-0.108289
-0.000000
0.000000
0.000000
0.000000
0.000000
-0.000000
0.000000
0.000000
0.000000
0.000000
0.000000
0.000000
0.002988
0.001303
0.000493
0.000333
0.001554
0.002484
0.000000
0.000000
-0.000000
-0.000000
0.190245
0.048841
0.028174
0.016388
0.058999
0.116353
0.000001
0.000000
-0.000000
-0.000000
-0.000001
0.000000
-0.000001
-0.000000
-0.000000
0.000000
0.000001
-0.000001
0.000000
0.000000
0.000000
0.000000
0.000000
0.000000
0.000000
0.000000
0.000000
-0.000000
0.000000
0.000000
0.000000
0.000000
-0.000000
-0.000000
-0.000000
0.000000
0.000438
0.000188
0.000087
0.000017
0.000138
0.000558
0.001225
0.000623
0.000142
-0.000135
0.000108
0.001345
1.208675
0.342477
0.208268
0.162942
1.184138
-0.005416
-0.004567
-0.001108
-0.000022
0.001041
0.001870
0.001709
0.000039
0.000014
0.000008
0.000035
0.000089
-0.000000
-0.000000
0.000000
0.000000
0.000000
-0.000000
-0.000000
-0.000000
0.000000
0.000000
0.000000
-0.000000
-0.000000
-0.000000
0.000000
-0.000000
-0.000000
-0.000000
-0.000000
0.000000
0.000000
-0.000000
-0.000000
0.000003
-0.000007
-0.000004
0.000001
0.000014
-0.000056
0.000000
0.000000
-0.000000
-0.000000
-0.000000
0.000000
-0.000000
-0.000000
-0.000000
0.000000
0.000000
0.000000
0.000386
0.000130
0.000078
0.000050
0.000319
0.000430
0.000000
0.000000
0.000000
0.000000
0.000000
0.000001
0.000000
0.000000
0.000000
0.000000
0.000001
0.295641
0.133728
0.054044
0.031489
0.162957
0.000016
0.000003
0.000004
0.000007
0.000020
0.000000
0.000000
-0.000000
-0.000000
-0.000000
0.000000
0.000000
0.000000
-0.000000
-0.000000
-0.000000
0.000000
-0.000000
-0.000000
0.000000
-0.000000
0.015438
0.004161
0.002706
0.001343
0.006983
0.015582
0.137577
0.023987
0.028080
0.048041
0.163117
0.073769
0.030303
0.006976
0.005939
0.031536
0.008147
0.003122
0.001829
0.001283
0.006402
0.007224
0.000184
0.000099
0.000038
0.000025
0.000134
0.000258
0.000000
0.000000
0.000000
0.000000
0.000000
0.000000
0.000862
0.000494
0.000154
0.000116
0.000063
0.000524
0.000817
 
