# vtk DataFile Version 3.0 
Date: 3/9/2016   Time: 10:24
ASCII 
DATASET UNSTRUCTURED_GRID 
 
POINTS 6022 float 
0.859118 0.555137 0.000000 
0.877604 0.553708 0.000000 
0.888913 0.571328 0.000000 
0.879393 0.588149 0.000000 
0.861705 0.589065 0.000000 
0.850258 0.572911 0.000000 
0.352958 0.770832 0.000000 
0.375015 0.762617 0.000000 
0.387978 0.785271 0.000000 
0.369330 0.799878 0.000000 
0.351629 0.790433 0.000000 
0.848772 0.155125 0.000000 
0.861614 0.137034 0.000000 
0.876928 0.137762 0.000000 
0.887681 0.157715 0.000000 
0.876210 0.173898 0.000000 
0.859874 0.173493 0.000000 
0.292069 0.463160 0.000000 
0.314525 0.460369 0.000000 
0.324056 0.477915 0.000000 
0.309020 0.494784 0.000000 
0.290562 0.487814 0.000000 
0.787572 0.369535 0.000000 
0.798060 0.365808 0.000000 
0.818103 0.378990 0.000000 
0.817783 0.396164 0.000000 
0.796963 0.403880 0.000000 
0.781251 0.390122 0.000000 
0.582813 0.940413 0.000000 
0.605184 0.944334 0.000000 
0.610234 0.965342 0.000000 
0.590952 0.975523 0.000000 
0.573258 0.964126 0.000000 
0.059614 0.911841 0.000000 
0.077291 0.917238 0.000000 
0.078623 0.940574 0.000000 
0.059025 0.947654 0.000000 
0.043430 0.932111 0.000000 
0.651199 0.869030 0.000000 
0.661954 0.855023 0.000000 
0.684447 0.857818 0.000000 
0.690298 0.874956 0.000000 
0.679501 0.889584 0.000000 
0.656629 0.884770 0.000000 
0.000000 0.405667 0.000000 
0.025945 0.405555 0.000000 
0.034862 0.420903 0.000000 
0.026374 0.437317 0.000000 
0.000000 0.437489 0.000000 
0.642907 0.745789 0.000000 
0.653118 0.730404 0.000000 
0.672795 0.730854 0.000000 
0.681204 0.741006 0.000000 
0.672689 0.764285 0.000000 
0.651533 0.763564 0.000000 
0.867315 0.916496 0.000000 
0.884246 0.904767 0.000000 
0.901784 0.913858 0.000000 
0.899753 0.936491 0.000000 
0.884332 0.944141 0.000000 
0.868446 0.935527 0.000000 
0.472126 0.380954 0.000000 
0.487548 0.371193 0.000000 
0.505863 0.380578 0.000000 
0.507823 0.394519 0.000000 
0.490654 0.411332 0.000000 
0.472166 0.402118 0.000000 
0.652913 0.129974 0.000000 
0.662655 0.117559 0.000000 
0.679766 0.117685 0.000000 
0.689987 0.134398 0.000000 
0.676550 0.154540 0.000000 
0.659937 0.151267 0.000000 
0.611916 0.489043 0.000000 
0.629539 0.482482 0.000000 
0.637038 0.486265 0.000000 
0.643999 0.510900 0.000000 
0.638038 0.519587 0.000000 
0.617166 0.521639 0.000000 
0.607246 0.507986 0.000000 
0.234879 0.314684 0.000000 
0.249643 0.306885 0.000000 
0.267829 0.317831 0.000000 
0.265908 0.337793 0.000000 
0.249741 0.345642 0.000000 
0.233017 0.334687 0.000000 
0.774343 0.815365 0.000000 
0.793015 0.814117 0.000000 
0.803523 0.827533 0.000000 
0.796765 0.847282 0.000000 
0.775825 0.849363 0.000000 
0.765226 0.837770 0.000000 
0.300991 0.146833 0.000000 
0.316866 0.136999 0.000000 
0.334787 0.147433 0.000000 
0.334429 0.166365 0.000000 
0.317957 0.175875 0.000000 
0.300611 0.165640 0.000000 
0.904825 0.192806 0.000000 
0.915130 0.176553 0.000000 
0.934901 0.176922 0.000000 
0.943697 0.192277 0.000000 
0.934412 0.210386 0.000000 
0.914807 0.210214 0.000000 
0.361850 0.505832 0.000000 
0.377335 0.499360 0.000000 
0.394659 0.515629 0.000000 
0.389467 0.533697 0.000000 
0.369409 0.538784 0.000000 
0.359567 0.529216 0.000000 
0.539477 0.092555 0.000000 
0.556343 0.083248 0.000000 
0.572402 0.092613 0.000000 
0.571950 0.113827 0.000000 
0.557988 0.122636 0.000000 
0.539004 0.112197 0.000000 
0.317605 0.233770 0.000000 
0.334061 0.224585 0.000000 
0.351071 0.234699 0.000000 
0.350537 0.254496 0.000000 
0.334271 0.263458 0.000000 
0.316783 0.253112 0.000000 
0.265644 0.602141 0.000000 
0.284382 0.594568 0.000000 
0.300379 0.609320 0.000000 
0.296069 0.626582 0.000000 
0.279100 0.633192 0.000000 
0.262189 0.618087 0.000000 
0.557988 0.122636 0.000000 
0.571950 0.113827 0.000000 
0.592755 0.123283 0.000000 
0.592280 0.142743 0.000000 
0.575168 0.152640 0.000000 
0.557246 0.141278 0.000000 
0.088328 0.595953 0.000000 
0.097361 0.581602 0.000000 
0.118898 0.582702 0.000000 
0.126716 0.601575 0.000000 
0.118390 0.614915 0.000000 
0.095703 0.613733 0.000000 
0.156625 0.884974 0.000000 
0.172295 0.876043 0.000000 
0.189474 0.884070 0.000000 
0.189604 0.905610 0.000000 
0.173137 0.914641 0.000000 
0.158445 0.907144 0.000000 
0.089717 0.468585 0.000000 
0.096506 0.455028 0.000000 
0.119022 0.452456 0.000000 
0.129242 0.470807 0.000000 
0.122257 0.485102 0.000000 
0.098688 0.486375 0.000000 
0.333696 0.322490 0.000000 
0.349973 0.313770 0.000000 
0.366909 0.323635 0.000000 
0.366514 0.343871 0.000000 
0.349431 0.353052 0.000000 
0.332667 0.342426 0.000000 
0.796713 0.725430 0.000000 
0.815829 0.724159 0.000000 
0.827034 0.740378 0.000000 
0.817941 0.758573 0.000000 
0.799513 0.759851 0.000000 
0.787833 0.744413 0.000000 
0.483892 0.949976 0.000000 
0.499451 0.938856 0.000000 
0.515410 0.944761 0.000000 
0.518231 0.965753 0.000000 
0.499928 0.975969 0.000000 
0.483488 0.965997 0.000000 
0.834945 0.607795 0.000000 
0.852416 0.606802 0.000000 
0.863200 0.622697 0.000000 
0.848916 0.643316 0.000000 
0.825900 0.633323 0.000000 
0.964914 0.472056 0.000000 
0.973315 0.456992 0.000000 
1.000000 0.456917 0.000000 
1.000000 0.489155 0.000000 
0.973662 0.489288 0.000000 
0.387407 0.412693 0.000000 
0.402385 0.394283 0.000000 
0.425027 0.406414 0.000000 
0.421935 0.425872 0.000000 
0.403837 0.431235 0.000000 
0.215628 0.176472 0.000000 
0.235898 0.166467 0.000000 
0.249911 0.174802 0.000000 
0.250176 0.193045 0.000000 
0.230765 0.204326 0.000000 
0.214035 0.188972 0.000000 
0.530880 0.461492 0.000000 
0.548432 0.452987 0.000000 
0.561339 0.459874 0.000000 
0.564089 0.483960 0.000000 
0.544908 0.492785 0.000000 
0.529024 0.480188 0.000000 
0.434529 0.437087 0.000000 
0.455202 0.430694 0.000000 
0.468495 0.442330 0.000000 
0.460200 0.464976 0.000000 
0.442663 0.468518 0.000000 
0.431239 0.456938 0.000000 
0.823802 0.825369 0.000000 
0.832022 0.809485 0.000000 
0.850375 0.807941 0.000000 
0.861694 0.823167 0.000000 
0.852733 0.843232 0.000000 
0.835876 0.845045 0.000000 
0.302756 0.698665 0.000000 
0.314673 0.697412 0.000000 
0.328523 0.710828 0.000000 
0.325616 0.728732 0.000000 
0.307018 0.737015 0.000000 
0.291008 0.727164 0.000000 
0.289349 0.717438 0.000000 
0.832242 0.574375 0.000000 
0.850258 0.572911 0.000000 
0.861705 0.589065 0.000000 
0.852416 0.606802 0.000000 
0.834945 0.607795 0.000000 
0.823578 0.595762 0.000000 
0.572402 0.092613 0.000000 
0.590188 0.083732 0.000000 
0.602444 0.090907 0.000000 
0.604199 0.115078 0.000000 
0.592755 0.123283 0.000000 
0.571950 0.113827 0.000000 
0.747571 0.101681 0.000000 
0.766191 0.101259 0.000000 
0.776236 0.119195 0.000000 
0.766273 0.135829 0.000000 
0.746746 0.135601 0.000000 
0.737333 0.119315 0.000000 
0.379268 0.571353 0.000000 
0.398491 0.565645 0.000000 
0.412665 0.580099 0.000000 
0.407842 0.598097 0.000000 
0.389064 0.603480 0.000000 
0.374814 0.589412 0.000000 
0.000000 0.437489 0.000000 
0.026374 0.437317 0.000000 
0.035065 0.453557 0.000000 
0.027366 0.468813 0.000000 
0.000000 0.469085 0.000000 
0.195968 0.540461 0.000000 
0.219100 0.530728 0.000000 
0.234462 0.547155 0.000000 
0.232997 0.557842 0.000000 
0.213745 0.569140 0.000000 
0.193091 0.552733 0.000000 
0.488631 0.000000 0.000000 
0.522841 0.000000 0.000000 
0.522806 0.024259 0.000000 
0.505758 0.034264 0.000000 
0.488586 0.024071 0.000000 
0.000000 0.531064 0.000000 
0.027947 0.531148 0.000000 
0.035480 0.546864 0.000000 
0.027578 0.562225 0.000000 
0.000000 0.562061 0.000000 
0.563043 0.587414 0.000000 
0.583752 0.585114 0.000000 
0.593844 0.604380 0.000000 
0.577255 0.620891 0.000000 
0.557930 0.610942 0.000000 
0.314525 0.460369 0.000000 
0.322129 0.444705 0.000000 
0.340142 0.442307 0.000000 
0.351548 0.468940 0.000000 
0.341611 0.480751 0.000000 
0.324056 0.477915 0.000000 
0.707701 0.168065 0.000000 
0.716492 0.152458 0.000000 
0.736997 0.152633 0.000000 
0.746472 0.169606 0.000000 
0.737041 0.185513 0.000000 
0.716431 0.186236 0.000000 
0.844339 0.704832 0.000000 
0.853256 0.688667 0.000000 
0.874230 0.687917 0.000000 
0.883818 0.705291 0.000000 
0.875160 0.721311 0.000000 
0.855039 0.722250 0.000000 
0.000000 0.782504 0.000000 
0.027368 0.783211 0.000000 
0.034735 0.797681 0.000000 
0.025872 0.814438 0.000000 
0.000000 0.813955 0.000000 
0.367445 0.264381 0.000000 
0.384141 0.255218 0.000000 
0.400577 0.264763 0.000000 
0.400516 0.284942 0.000000 
0.383777 0.294210 0.000000 
0.367011 0.284552 0.000000 
0.451001 0.502333 0.000000 
0.470964 0.495979 0.000000 
0.485031 0.510676 0.000000 
0.481370 0.527404 0.000000 
0.460764 0.533598 0.000000 
0.446856 0.519056 0.000000 
0.056412 0.213162 0.000000 
0.065626 0.197358 0.000000 
0.087515 0.198024 0.000000 
0.095259 0.213967 0.000000 
0.084875 0.231121 0.000000 
0.065464 0.230532 0.000000 
0.087759 0.165023 0.000000 
0.096259 0.150210 0.000000 
0.116702 0.149409 0.000000 
0.127285 0.168181 0.000000 
0.119173 0.182630 0.000000 
0.096325 0.182524 0.000000 
0.064222 0.813849 0.000000 
0.086261 0.815572 0.000000 
0.092624 0.830708 0.000000 
0.082266 0.847863 0.000000 
0.062069 0.845445 0.000000 
0.054522 0.830744 0.000000 
0.863993 0.064813 0.000000 
0.877173 0.059597 0.000000 
0.890761 0.066429 0.000000 
0.895080 0.086263 0.000000 
0.878764 0.100641 0.000000 
0.864816 0.098505 0.000000 
0.857335 0.087153 0.000000 
0.965234 0.160161 0.000000 
0.974056 0.144871 0.000000 
1.000000 0.145094 0.000000 
1.000000 0.176448 0.000000 
0.973555 0.176336 0.000000 
0.343686 0.972693 0.000000 
0.356524 0.964869 0.000000 
0.374318 0.972940 0.000000 
0.374195 1.000000 0.000000 
0.343630 1.000000 0.000000 
0.369409 0.538784 0.000000 
0.389467 0.533697 0.000000 
0.403166 0.547985 0.000000 
0.398491 0.565645 0.000000 
0.379268 0.571353 0.000000 
0.365652 0.557848 0.000000 
0.580460 0.552861 0.000000 
0.586788 0.540839 0.000000 
0.609819 0.538458 0.000000 
0.619888 0.555529 0.000000 
0.611820 0.570605 0.000000 
0.590850 0.572141 0.000000 
0.787339 0.942974 0.000000 
0.800364 0.934790 0.000000 
0.819339 0.944520 0.000000 
0.818737 0.965473 0.000000 
0.804551 0.973591 0.000000 
[...]
CELL_DATA 1024
FIELD FieldData 1
material 1 1024 int
1
1
1
1
1
1
1
1
1
1
1
1
1
1
1
1
1
1
1
1
1
1
1
1
1
1
1
1
1
1
1
1
1
1
1
1
1
1
1
1
1
1
1
1
1
1
1
1
1
1
1
1
1
1
1
1
1
1
1
1
1
1
1
1
1
1
1
1
1
1
1
1
1
1
1
1
1
1
1
1
1
1
1
1
1
1
1
1
1
1
1
1
1
1
1
1
1
1
1
1
1
1
1
1
1
1
1
1
1
1
1
1
1
1
1
1
1
1
1
1
1
1
1
1
1
1
1
1
1
1
1
1
1
1
1
1
1
1
1
1
1
1
1
1
1
1
1
1
1
1
1
1
1
1
1
1
1
1
1
1
1
1
1
1
1
1
1
1
1
1
1
1
1
1
1
1
1
1
1
1
1
1
1
1
1
1
1
1
1
1
1
1
1
1
1
1
1
1
1
1
1
1
1
1
1
1
1
1
1
1
1
1
1
1
1
1
1
1
1
1
1
1
1
1
1
1
1
1
1
1
1
1
1
1
1
1
1
1
1
1
1
1
1
1
1
1
1
1
1
1
1
1
1
1
1
1
1
1
1
1
1
1
1
1
1
1
1
1
1
1
1
1
1
1
1
1
1
1
1
1
1
1
1
1
1
1
1
1
1
1
1
1
1
1
1
1
1
1
1
1
1
1
1
1
1
1
1
1
1
1
1
1
1
1
1
1
1
1
1
1
1
1
1
1
1
1
1
1
1
1
1
1
1
1
1
1
1
1
1
1
1
1
1
1
1
1
1
1
1
1
1
1
1
1
1
1
1
1
1
1
1
1
1
1
1
1
1
1
1
1
1
1
1
1
1
1
1
1
1
1
1
1
1
1
1
1
1
1
1
1
1
1
1
1
1
1
1
1
1
1
1
1
1
1
1
1
1
1
1
1
1
1
1
1
1
1
1
1
1
1
1
1
1
1
1
1
1
1
1
1
1
1
1
1
1
1
1
1
1
1
1
1
1
1
1
1
1
1
1
1
1
1
1
1
1
1
1
1
1
1
1
1
1
1
1
1
1
1
1
1
1
1
1
1
1
1
1
1
1
1
1
1
1
1
1
1
1
1
1
1
1
1
1
1
1
1
1
1
1
1
1
1
1
1
1
1
1
1
1
1
1
1
1
1
1
1
1
1
1
1
1
1
1
1
1
1
1
1
1
1
1
1
1
1
1
1
1
1
1
1
1
1
1
1
1
1
1
1
1
1
1
1
1
1
1
1
1
1
1
1
1
1
1
1
1
1
1
1
1
1
1
1
1
1
1
1
1
1
1
1
1
1
1
1
1
1
1
1
1
1
1
1
1
1
1
1
1
1
1
1
1
1
1
1
1
1
1
1
1
1
1
1
1
1
1
1
1
1
1
1
1
1
1
1
1
1
1
1
1
1
1
1
1
1
1
1
1
1
1
1
1
1
1
1
1
1
1
1
1
1
1
1
1
1
1
1
1
1
1
1
1
1
1
1
1
1
1
1
1
1
1
1
1
1
1
1
1
1
1
1
1
1
1
1
1
1
1
1
1
1
1
1
1
1
1
1
1
1
1
1
1
1
1
1
1
1
1
1
1
1
1
1
1
1
1
1
1
1
1
1
1
1
1
1
1
1
1
1
1
1
1
1
1
1
1
1
1
1
1
1
1
1
1
1
1
1
1
1
1
1
1
1
1
1
1
1
1
1
1
1
1
1
1
1
1
1
1
1
1
1
1
1
1
1
1
1
1
1
1
1
1
1
1
1
1
1
1
1
1
1
1
1
1
1
1
1
1
1
1
1
1
1
1
1
1
1
1
1
1
1
1
1
1
1
1
1
1
1
1
1
1
1
1
1
1
1
1
1
1
1
1
1
1
1
1
1
1
1
1
1
1
1
1
1
1
1
1
1
1
1
1
1
1
1
1
1
1
1
1
1
1
1
1
1
1
1
1
1
1
1
1
1
1
1
1
1
1
1
1
1
1
1
1
1
1
1
1
1
1
1
1
1
1
1
1
1
1
1
1
1
1
1
1
1
1
1
1
1
1
1
1
1
1
1
1
1
1
1
1
1
1
1
1
1
1
1
1
1
1
1
1
1
1
1
1
1
1
1
1
1
1
1
1
1
1
1
1
1
1
1
1
1
1
1
1
1
1
1
1
1
1
1
1
1
1
1
1
1
1
1
1
1
1
1
1
1
1
1
1
1
1
1
1
1
1
1
1
1
1
1
1
1
1
1
1
1
1
1
1
1
1
1
1
1
1
1
1
1
1
1
1
1
1
1
1
1
1
1
1
1
1
1
1
1
POINT_DATA 6022 SCALARS flux_g1 double 
LOOKUP_TABLE   default 
-0.000000
-0.000000
-0.000000
-0.000000
-0.000000
0.000000
0.002122
0.001821
-0.000053
-0.000108
0.002600
0.056950
0.061814
0.038739
0.001481
-0.001097
0.009720
0.613397
0.575707
0.560391
0.584890
0.615772
0.000944
0.000844
0.000136
-0.000214
-0.000042
0.000888
-0.000000
-0.000000
0.000000
0.000000
0.000000
1.305912
0.691296
0.060362
0.385694
1.282603
-0.000000
-0.000000
-0.000000
0.000000
0.000000
0.000000
1.412875
1.313165
1.280223
1.310699
1.413116
0.000000
0.000000
0.000000
-0.000000
-0.000000
-0.000000
0.000000
0.000000
-0.000000
-0.000000
-0.000000
-0.000000
0.364067
0.348066
0.335738
0.337381
0.355226
0.362860
0.219097
0.212976
0.202851
0.196544
0.203966
0.214397
-0.006462
-0.003594
-0.001512
0.002669
0.001845
0.003235
-0.002301
0.722423
0.692697
0.658168
0.661177
0.692761
0.726108
0.000000
0.000000
-0.000000
-0.000000
-0.000000
0.000000
0.598102
0.571641
0.543577
0.543584
0.570054
0.598563
-0.004639
-0.006149
-0.002846
-0.000051
0.000560
-0.000573
0.498108
0.479233
0.469923
0.482354
0.506050
0.505686
0.302591
0.288406
0.275717
0.275806
0.287182
0.302878
0.570349
0.544262
0.518899
0.519179
0.544137
0.571541
0.653399
0.623400
0.614370
0.631410
0.654633
0.659930
0.287029
0.275771
0.260107
0.260185
0.273365
0.287503
1.098878
1.069719
1.007163
0.984472
1.007883
1.074415
-0.036094
-0.040584
-0.021558
0.001827
0.004196
-0.060940
1.094656
1.072223
1.006757
0.977469
0.996674
1.065309
0.544696
0.520053
0.495927
0.495993
0.521024
0.546194
-0.000000
-0.000000
0.000000
0.000000
0.000000
-0.000000
0.000000
0.000000
0.000000
-0.000000
-0.000000
0.000000
-0.000000
-0.000000
-0.000000
0.000000
-0.000000
-0.000000
0.000000
-0.000000
-0.000000
-0.000000
0.467857
0.448202
0.419437
0.421935
0.445384
0.762831
0.720511
0.692825
0.691537
0.731260
0.766842
0.181018
0.139903
0.069782
-0.018461
0.011557
0.115936
0.404860
0.386766
0.382252
0.396810
0.413482
0.412630
-0.000000
-0.000000
-0.000000
0.000000
0.000000
0.000000
0.261822
0.175584
0.012850
-0.055511
-0.020096
0.090589
0.220619
0.000000
0.000000
-0.000000
-0.000000
0.000000
0.000000
0.275436
0.261834
0.253042
0.251554
0.260029
0.275638
0.165421
0.158849
0.157611
0.163262
0.168935
0.171170
0.517965
0.431462
0.261806
0.185680
0.276110
0.481607
1.412837
1.311549
1.279496
1.307000
1.413023
0.806736
0.756184
0.723830
0.726042
0.767566
0.814180
0.349591
0.317531
0.317445
0.333232
0.350024
1.412728
1.305670
1.278006
1.306210
1.413041
0.001110
0.000598
-0.000106
-0.000098
0.000598
0.575417
0.562653
0.535225
0.518422
0.533176
0.560267
0.188339
0.182295
0.175742
0.174863
0.179928
0.189871
-0.000000
-0.000000
-0.000000
0.000000
0.000000
0.000000
1.412800
1.307841
1.280720
1.312631
1.413183
0.494660
0.471697
0.450442
0.450073
0.472324
0.495111
0.413656
0.338226
0.198088
0.137133
0.214192
0.378880
1.203757
1.171232
1.101662
1.077034
1.108972
1.171705
1.100700
1.073069
1.013471
0.982916
1.005549
1.072558
1.174098
1.102008
1.084149
1.123023
1.163859
1.211548
0.127362
0.119433
0.103163
0.084441
0.088601
0.112145
0.124633
-0.001192
-0.001663
0.000108
0.000908
0.001113
0.000000
0.000000
0.000000
-0.000000
0.000000
0.506598
0.481065
0.459763
0.454656
0.507522
0.512415
0.000935
0.001357
0.000890
0.000499
0.000336
0.000942
-0.000000
-0.000000
0.000000
0.000000
-0.000000
0.000000
0.158430
0.151856
0.142841
0.146907
0.153374
-0.000000
-0.000000
0.000000
0.000000
-0.000000
0.000000
-0.000000
-0.000000
-0.000000
0.000000
0.000000
-0.000000
1.412788
1.309111
1.279863
1.307373
1.413046
-0.003087
-0.004573
-0.004658
-0.004750
-0.003759
-0.008071
1.412802
1.308934
1.280698
1.311285
1.413155
1.309665
1.278030
1.201535
1.171455
1.199991
1.277756
0.186080
0.179830
0.171578
0.169051
0.175026
0.181426
0.297732
0.285176
0.271702
0.266103
0.278101
0.306938
0.316762
0.306221
0.274347
0.250405
0.263566
0.328587
0.349895
0.333363
0.317784
0.317661
0.333485
0.350043
1.216507
1.180477
1.116246
1.092295
1.128387
1.188677
0.722659
0.679874
0.649078
0.650518
0.691215
0.726406
0.000914
0.000385
-0.000073
-0.000080
-0.000621
0.000488
0.000044
-0.000153
-0.000165
0.000308
0.830057
0.587507
0.255474
-0.109989
-0.012753
0.484893
1.206882
1.174662
1.104137
1.081358
1.115312
1.180240
0.000000
0.000000
-0.000000
-0.000000
-0.000000
0.000000
0.472847
0.450117
0.428798
0.427385
0.449806
0.472524
0.914473
0.863265
0.836766
0.844315
0.897825
0.931314
0.202913
0.196519
0.186549
0.180674
0.186187
0.196228
-0.000000
-0.000000
0.000000
0.000000
0.000000
0.000000
-0.000078
-0.000029
0.000018
0.000014
0.000012
0.660608
0.630376
0.586484
0.581108
0.628898
0.672819
-0.000055
-0.000109
-0.000024
0.000025
0.000014
0.000028
0.409293
0.389461
0.372557
0.371838
0.390501
0.408919
0.000222
0.000368
0.000052
-0.000215
-0.000150
-0.000329
-0.002917
-0.001216
0.000657
0.001163
0.000782
0.000069
0.000000
0.000000
0.000000
-0.000000
-0.000000
-0.000000
0.939771
0.899108
0.845619
0.856296
0.914171
0.000001
-0.000000
-0.000000
-0.000000
-0.000123
-0.000061
0.000012
0.000014
-0.000041
0.081242
0.041533
0.018760
0.041793
0.060729
-0.000006
0.000002
0.000004
0.000002
-0.000001
0.000019
-0.000000
-0.000000
-0.000000
0.000000
0.000000
0.000000
0.687190
0.590028
0.306005
0.255906
0.640658
0.002424
0.002306
0.000753
-0.000433
-0.000542
0.002703
0.000000
0.000000
0.000000
-0.000000
0.000000
0.000006
0.000009
0.000004
0.000001
-0.000001
0.000006
0.195956
0.187137
0.180857
0.186465
0.196521
0.201417
0.000000
0.000000
0.000000
-0.000000
-0.000000
0.000006
0.000006
0.000002
-0.000001
-0.000002
0.000010
0.160283
0.146228
0.145403
0.153297
0.160973
0.000000
0.000000
-0.000000
-0.000000
-0.000000
0.000000
1.412871
1.312140
1.283106
1.316208
1.413269
1.177847
1.129468
1.091119
1.117776
1.178134
1.217472
0.479263
0.452798
0.437473
0.443238
0.469811
0.491494
0.000015
-0.000041
-0.000060
-0.000081
-0.000054
-0.000097
-0.000230
-0.012396
-0.009479
-0.001847
0.000895
-0.000741
-0.008984
0.074773
0.057797
0.043707
0.017157
0.018314
0.046920
0.852799
0.807762
0.780626
0.784807
0.835951
0.862996
0.233994
0.219127
0.214472
0.223836
0.239114
0.571978
0.545178
0.518764
0.518486
0.544164
0.572068
1.194771
1.165848
1.092891
1.068173
1.093794
1.167593
-0.000000
-0.000000
-0.000000
0.000000
0.000000
0.000000
-0.000000
-0.000001
-0.000000
0.000000
0.000000
-0.000000
0.598292
0.570608
0.543899
0.544176
0.570652
0.599276
0.835703
0.803415
0.774359
0.795207
0.804905
0.845839
-0.017518
-0.011302
-0.001889
0.003938
0.001684
-0.009953
1.194082
1.168325
1.094681
1.066647
1.088814
1.165376
-0.000000
0.000000
-0.000000
-0.000000
0.000000
-0.000000
-0.026930
-0.020092
-0.004839
0.005567
0.003481
-0.009712
-0.000003
0.000003
0.000006
0.000007
0.000005
0.000009
-0.011092
-0.005235
0.000963
0.003491
0.002448
0.003077
-0.000595
0.001218
0.001442
0.000774
0.003893
0.291478
0.115896
-0.008349
-0.096134
-0.087988
-0.025673
1.311817
1.279729
1.203901
1.172590
1.202799
1.278550
-0.040959
-0.030040
-0.005185
0.008208
0.005969
-0.013340
0.574338
0.547634
0.540865
0.552794
0.576976
0.582312
1.172863
1.108809
1.078739
1.107487
1.171549
1.203533
-0.000000
-0.000000
-0.000000
0.000000
0.000000
-0.000000
1.319759
1.283279
1.209719
1.181430
1.217355
1.279517
1.108831
1.083526
1.002565
0.987558
1.018273
1.077665
1.308070
1.278684
1.207832
1.176482
1.217368
1.282012
0.000001
0.000002
0.000005
0.000007
0.000003
0.000016
0.554085
0.463646
0.281614
0.194349
0.289193
0.522335
-0.000000
-0.000000
-0.000000
0.000000
0.000000
0.000000
0.418821
0.403869
0.381413
0.384507
0.405506
0.422015
0.000000
0.000000
-0.000000
-0.000000
-0.000000
-0.000000
0.000000
0.000000
0.000000
-0.000000
-0.000000
0.000006
0.000012
0.000004
-0.000002
-0.000002
-0.000001
-0.000104
-0.000124
-0.000100
-0.000036
-0.000005
-0.000183
0.000000
-0.000000
0.000000
0.000000
0.000000
0.000000
0.000004
0.000002
0.000001
-0.000001
-0.000001
0.000000
0.699344
0.661286
0.631543
0.631183
0.658579
0.698996
0.917206
0.895429
0.852286
0.815821
0.819042
0.847489
0.901713
0.821038
0.771348
0.736923
0.738604
0.775827
0.820324
-0.000000
-0.000000
-0.000000
0.000000
0.000000
0.000000
1.412753
1.308247
1.283106
1.302144
1.412942
-0.000010
-0.000022
-0.000002
0.000014
0.000010
0.000024
0.303788
0.292014
0.279532
0.279999
0.294791
0.302853
0.000007
0.000004
-0.000002
-0.000003
-0.000003
0.000006
0.386181
0.367909
0.350337
0.350346
0.368384
0.386386
0.002415
0.002465
0.000635
-0.000373
-0.000219
0.003599
0.158504
0.153876
0.147658
0.146479
0.152194
0.158255
0.000005
0.000004
0.000001
-0.000001
-0.000001
0.000004
0.288247
0.274322
0.262462
0.261782
0.275535
0.288284
0.000000
0.000000
0.000000
-0.000000
-0.000000
-0.000000
-0.000000
-0.000000
0.000000
-0.000000
-0.000000
0.000000
0.686921
0.645989
0.624756
0.627130
0.667435
0.690892
0.005394
-0.007435
-0.014722
-0.016498
-0.015415
-0.019833
-0.000067
-0.000090
-0.000068
-0.000036
-0.000021
-0.000083
0.852956
0.896995
0.721421
0.512786
0.295530
0.352683
0.797980
-0.000002
-0.000001
-0.000000
0.000000
0.000001
-0.000002
-0.000000
-0.000000
-0.000000
0.000000
-0.000000
-0.000000
-0.000000
-0.000000
0.000000
0.000000
0.000000
0.000000
0.003317
-0.005001
-0.011049
-0.010801
-0.010984
-0.025825
0.000000
0.000000
-0.000000
-0.000000
0.000000
-0.000000
-0.000000
0.000000
0.000000
0.000000
0.000000
0.000000
0.000000
-0.000000
-0.000000
0.000000
0.481766
0.396661
0.242149
0.171457
0.256665
0.446507
-0.000038
-0.000056
-0.000005
0.000018
0.000014
0.000020
0.649081
0.609114
0.578707
0.582738
0.616104
0.651695
0.000001
0.000003
0.000000
-0.000001
-0.000000
-0.000001
1.116443
1.082172
1.038117
1.000403
1.021667
1.080236
1.305933
1.288716
1.218730
0.869075
0.637253
0.784188
1.403020
0.219974
0.214630
0.201476
0.196552
0.202723
0.212977
0.000000
0.000000
0.000000
-0.000000
-0.000000
1.077187
1.018640
0.981729
0.960548
0.996126
1.057831
0.001128
0.001871
0.000930
-0.000037
-0.000029
0.000201
0.273171
0.260224
0.247101
0.249722
0.261321
0.273863
0.000000
0.000000
-0.000000
-0.000000
-0.000000
-0.000000
-0.000000
-0.000000
0.000000
0.000000
0.000000
0.603113
0.574852
0.551486
0.549485
0.579429
0.607561
1.127712
1.089383
1.028434
1.010601
1.051306
1.090318
1.302562
1.281892
1.218572
1.180421
1.220100
1.284381
1.300194
0.000014
-0.000023
-0.000062
-0.000071
-0.000052
-0.000058
-0.000236
-0.000000
-0.000000
0.000000
0.000000
0.000000
-0.000000
0.001739
0.001175
0.000117
-0.000390
-0.000311
0.000173
0.426947
0.406348
0.387946
0.387613
0.407878
0.427000
0.435210
0.415170
0.411201
0.422559
0.443357
0.444294
1.090165
1.032373
0.998318
1.036951
1.082351
1.118533
1.308920
1.277664
1.203997
1.172772
1.206774
1.278608
0.996533
0.958571
0.912835
0.892762
0.925920
0.968445
-0.000000
-0.000000
-0.000000
-0.000000
0.000000
0.000000
-0.000000
0.760517
0.726465
0.693085
0.696266
0.732126
0.765059
0.658036
0.630263
0.598719
0.600229
0.627329
0.660954
1.412757
1.307836
1.278111
1.304708
1.412984
0.125711
0.079952
0.015317
0.024257
0.106273
0.261306
0.249833
0.237286
0.237725
0.249778
0.263294
0.283542
0.262563
0.196800
0.129087
0.140764
0.255216
-0.009836
-0.008472
-0.003263
-0.000926
-0.002978
-0.012054
0.045671
0.050772
0.026600
-0.006650
-0.007943
-0.004269
0.005576
-0.008996
-0.017104
-0.017299
-0.017681
-0.025276
0.002012
0.001714
0.000532
-0.000441
-0.000666
0.002038
0.771045
0.724236
0.720319
0.763251
0.795359
-0.000000
-0.000000
-0.000000
0.000000
0.000000
-0.000000
-0.000179
-0.000124
-0.000030
0.000004
0.000000
-0.000168
1.309526
1.277814
1.200994
1.172236
1.202949
1.277641
0.000340
0.001635
0.001148
0.000609
0.003987
0.000935
0.000428
-0.000142
-0.000158
0.000113
-0.002392
-0.000778
0.001107
0.001165
0.000964
-0.000936
0.824939
0.779968
0.750953
0.755501
0.807149
0.840768
0.385609
0.350132
0.350039
0.367453
0.386086
1.150134
1.043642
1.042767
1.097778
1.153540
-0.000000
-0.000000
0.000000
0.000000
0.000000
-0.000000
0.518211
0.493804
0.470129
0.469860
0.493362
0.518349
0.704109
0.672431
0.618132
0.610220
0.670345
0.719050
0.999784
0.967903
0.930735
0.937198
0.968298
0.990514
1.099771
1.066601
1.005733
0.987622
1.013478
1.063636
-0.000000
0.000000
0.000000
0.000000
0.000000
0.000000
0.000270
0.000056
-0.000065
-0.000053
-0.000011
-0.000451
0.000010
0.000009
0.000007
0.000002
0.000009
-0.000000
-0.000000
0.000000
0.000000
0.000000
-0.000000
0.000000
0.000000
0.000000
0.000000
0.000000
0.283181
0.193963
0.034530
-0.039819
0.011827
0.195542
-0.043729
-0.045661
-0.018100
0.007222
0.011726
-0.077334
0.214576
0.209375
0.194330
0.192366
0.203561
0.221638
-0.000000
-0.000000
-0.000000
0.000000
0.000000
0.002260
0.001426
-0.002476
-0.007408
-0.006620
-0.010806
-0.001511
0.000769
0.001507
0.000645
-0.000046
0.006713
-0.000000
-0.000000
-0.000000
0.000000
0.000000
0.543017
0.518214
0.493500
0.493396
0.517778
0.543425
0.052277
0.045748
0.019332
-0.002594
-0.002698
0.004236
0.040580
-0.005509
-0.005523
-0.005991
-0.005019
-0.009911
-0.003442
-0.000020
-0.000007
0.000008
0.000013
0.000011
-0.000006
0.496434
0.335140
0.105639
-0.057012
-0.010406
0.219666
1.412760
1.307057
1.279148
1.308086
1.413082
0.723731
0.696612
0.658678
0.661197
0.689411
0.727171
0.088049
0.063099
0.012685
-0.023938
-0.011383
0.020340
1.089364
1.105253
0.839093
0.546043
0.572040
1.059137
-0.000000
-0.000000
0.000000
0.000000
-0.000000
-0.000000
0.000932
0.000452
0.000115
-0.000083
0.000096
0.000585
0.469298
0.446021
0.441488
0.452342
0.470626
0.477809
0.000000
0.000000
0.000000
-0.000000
-0.000000
-0.000000
1.412820
1.311010
1.279468
1.308933
1.413082
0.000606
0.000277
-0.000096
-0.000171
-0.000100
-0.000443
0.333526
0.317562
0.302247
0.302517
0.318496
0.333931
0.599896
0.572314
0.544448
0.544221
0.571426
0.599952
0.195337
0.177003
0.177065
0.186318
0.194917
0.131263
0.120748
0.122769
0.128095
0.131596
0.000000
0.000000
0.000000
-0.000000
-0.000000
0.000000
-0.000070
-0.000104
-0.000048
0.000014
0.000039
-0.000219
0.105588
0.093972
0.053740
0.042889
0.050543
0.083631
1.115864
1.080727
1.024658
1.002207
1.042830
1.091580
0.000000
0.000000
-0.000000
0.000000
-0.000000
0.000177
0.000433
0.000579
0.000489
0.000961
0.000219
0.317448
0.302403
0.288554
0.288360
0.302738
0.317571
-0.000026
-0.000019
0.000005
0.000011
0.000007
0.000026
-0.015318
-0.025123
-0.018210
-0.008103
-0.011269
-0.052907
-0.000475
0.000764
0.001003
0.000843
0.000965
0.002229
-0.000001
-0.000002
-0.000000
0.000000
0.000000
0.000000
0.001471
0.000981
0.000070
-0.000322
-0.000284
0.000115
0.145931
0.132036
0.131975
0.138353
0.145248
0.858065
0.815833
0.770587
0.779309
0.825012
0.425906
0.405699
0.386594
0.386467
0.406268
0.426074
-0.000002
-0.000001
0.000000
0.000000
0.000001
-0.000001
0.000013
0.000007
-0.000001
-0.000004
-0.000004
0.000010
0.000351
0.000804
0.000487
-0.000027
-0.000233
-0.000181
-0.000249
0.212582
0.203349
0.200875
0.208250
0.212592
0.215596
1.179599
1.128069
1.090696
1.128284
1.178102
1.220772
0.689008
0.661243
0.627598
0.629827
0.657898
0.692357
1.311960
1.279264
1.201223
1.175683
1.206163
1.281694
0.000000
0.000000
-0.000000
-0.000000
-0.000000
0.000000
1.323011
1.285046
1.216874
1.189653
1.224577
1.284090
0.288197
0.274027
0.261427
0.263167
0.275822
0.289073
1.024192
0.987422
0.939172
0.918419
0.957789
1.001584
0.000000
-0.000000
0.000000
0.000000
0.000000
0.000000
0.003095
-0.003087
-0.010171
-0.011566
-0.013025
-0.010926
-0.001607
-0.000564
0.000766
0.000991
0.000731
0.000811
-0.013398
-0.021562
-0.017738
-0.011670
-0.012710
-0.040661
-0.001743
-0.002514
-0.000752
0.001092
0.001098
0.001538
-0.000000
-0.000000
-0.000000
0.000000
0.000000
-0.000000
0.990074
0.935485
0.909843
0.936007
0.985968
1.016710
0.533485
0.518091
0.491176
0.472271
0.477451
0.499118
0.523334
0.122004
0.115516
0.103714
0.096335
0.104288
0.122423
0.922908
0.872373
0.868800
0.920018
0.960401
-0.000635
-0.000742
0.000074
0.000942
0.000837
0.001345
-0.022874
-0.042755
-0.033915
-0.009711
-0.008522
-0.109028
0.136795
0.141239
0.106478
0.055617
0.047327
0.085569
0.001149
0.000697
-0.000091
-0.000318
-0.000295
0.000732
-0.000184
-0.000159
-0.000016
0.000028
0.000020
-0.000213
0.000000
-0.000000
-0.000000
0.000000
0.000000
0.000000
0.855371
0.774404
0.774661
0.812134
0.854595
1.412643
1.302183
1.276767
1.307000
1.413094
-0.000002
-0.000001
0.000000
0.000000
0.000001
-0.000002
0.367390
0.349992
0.333534
0.333307
0.350075
0.367431
0.997415
0.976464
0.915179
0.886761
0.919579
0.970813
1.022480
0.999616
0.949668
0.915355
0.930546
0.987230
1.006720
0.987212
0.931386
0.898685
0.914373
0.976309
0.880276
0.843918
0.810528
0.792101
0.805239
0.860481
0.000000
0.000000
-0.000000
-0.000000
-0.000000
-0.000000
-0.013741
-0.023417
-0.016750
-0.011850
-0.015452
-0.044227
0.000000
0.000000
0.000000
-0.000000
-0.000000
-0.000000
-0.000000
-0.000000
0.000000
0.000000
0.000000
-0.000000
0.709304
0.669361
0.643277
0.645613
0.687217
0.712219
0.187174
0.183922
0.170179
0.166169
0.171649
0.180771
-0.000000
-0.000000
0.000000
0.000000
-0.000000
0.000000
0.550879
0.522258
0.498553
0.499283
0.533320
0.549462
0.000000
0.000000
0.000000
-0.000000
-0.000000
0.000000
-0.000031
-0.000019
0.000000
0.000011
0.000004
0.000020
1.014140
1.007560
0.966715
0.888960
0.875436
1.113145
-0.000000
-0.000000
-0.000000
0.000000
0.000000
0.323099
0.307599
0.293906
0.292834
0.304593
0.321628
0.000008
0.000009
0.000005
0.000000
-0.000001
0.000008
0.444704
0.422057
0.407223
0.412377
0.435106
0.452896
0.769897
0.738095
0.703112
0.707970
0.750406
0.779749
0.000004
0.000005
0.000000
-0.000002
-0.000002
-0.000003
0.642463
0.607790
0.579783
0.585007
0.624112
0.645834
0.318301
0.302598
0.288558
0.289119
0.304364
0.318811
0.276868
0.264521
0.253691
0.260887
0.266977
0.278334
0.000000
-0.000000
-0.000000
0.000000
0.000000
0.000436
0.000156
-0.000084
-0.000112
-0.000042
-0.000463
0.623899
0.585431
0.563370
0.575295
0.613491
0.627325
0.542763
0.514424
0.492749
0.488231
0.540724
0.548526
0.000005
0.000008
0.000002
-0.000002
-0.000001
-0.000001
0.493097
0.469927
0.447556
0.447341
0.469818
0.493262
0.613010
0.585250
0.575976
0.591313
0.615581
0.620269
0.201660
0.192264
0.167581