# vtk DataFile Version 3.0 
Date: 3/9/2016   Time: 10:24
ASCII 
DATASET UNSTRUCTURED_GRID 
 
POINTS 82 float 
0.265006 0.539883 0.000000 
0.484488 0.535088 0.000000 
0.518115 0.569640 0.000000 
0.500469 0.749572 0.000000 
0.328866 0.836613 0.000000 
0.234672 0.742060 0.000000 
0.600137 0.000000 0.000000 
0.785344 0.000000 0.000000 
0.811643 0.241470 0.000000 
0.726027 0.305776 0.000000 
0.600796 0.270959 0.000000 
0.407025 0.000000 0.000000 
0.600137 0.000000 0.000000 
0.600796 0.270959 0.000000 
0.504618 0.311062 0.000000 
0.395635 0.256144 0.000000 
0.000000 0.261721 0.000000 
0.192656 0.243026 0.000000 
0.258708 0.291506 0.000000 
0.232869 0.504093 0.000000 
0.000000 0.502885 0.000000 
0.000000 0.777419 0.000000 
0.234672 0.742060 0.000000 
0.328866 0.836613 0.000000 
0.320938 1.000000 0.000000 
0.000000 1.000000 0.000000 
0.000000 0.000000 0.000000 
0.206929 0.000000 0.000000 
0.192656 0.243026 0.000000 
0.000000 0.261721 0.000000 
0.785344 0.000000 0.000000 
1.000000 0.000000 0.000000 
1.000000 0.261975 0.000000 
0.811643 0.241470 0.000000 
0.258708 0.291506 0.000000 
0.395635 0.256144 0.000000 
0.504618 0.311062 0.000000 
0.484488 0.535088 0.000000 
0.265006 0.539883 0.000000 
0.232869 0.504093 0.000000 
0.726027 0.305776 0.000000 
0.811643 0.241470 0.000000 
1.000000 0.261975 0.000000 
1.000000 0.498667 0.000000 
0.768333 0.505769 0.000000 
0.518115 0.569640 0.000000 
0.731146 0.554471 0.000000 
0.782561 0.745591 0.000000 
0.666164 0.867919 0.000000 
0.500469 0.749572 0.000000 
0.328866 0.836613 0.000000 
0.500469 0.749572 0.000000 
0.666164 0.867919 0.000000 
0.670810 1.000000 0.000000 
0.320938 1.000000 0.000000 
0.731146 0.554471 0.000000 
0.768333 0.505769 0.000000 
1.000000 0.498667 0.000000 
1.000000 0.778681 0.000000 
0.782561 0.745591 0.000000 
0.666164 0.867919 0.000000 
0.782561 0.745591 0.000000 
1.000000 0.778681 0.000000 
1.000000 1.000000 0.000000 
0.670810 1.000000 0.000000 
0.206929 0.000000 0.000000 
0.407025 0.000000 0.000000 
0.395635 0.256144 0.000000 
0.258708 0.291506 0.000000 
0.192656 0.243026 0.000000 
0.000000 0.502885 0.000000 
0.232869 0.504093 0.000000 
0.265006 0.539883 0.000000 
0.234672 0.742060 0.000000 
0.000000 0.777419 0.000000 
0.504618 0.311062 0.000000 
0.600796 0.270959 0.000000 
0.726027 0.305776 0.000000 
0.768333 0.505769 0.000000 
0.731146 0.554471 0.000000 
0.518115 0.569640 0.000000 
0.484488 0.535088 0.000000 
CELLS 16 98 
 6 0 1 2 3 4 5  
 5 6 7 8 9 10  
 5 11 12 13 14 15  
 5 16 17 18 19 20  
 5 21 22 23 24 25  
 4 26 27 28 29  
 4 30 31 32 33  
 6 34 35 36 37 38 39  
 5 40 41 42 43 44  
 5 45 46 47 48 49  
 5 50 51 52 53 54  
 5 55 56 57 58 59  
 5 60 61 62 63 64  
 5 65 66 67 68 69  
 5 70 71 72 73 74  
 7 75 76 77 78 79 80 81  
 
CELL_TYPES 16
7
7
7
7
7
7
7
7
7
7
7
7
7
7
7
7
CELL_DATA 16
FIELD FieldData 1
material 1 16 int
1
1
1
1
1
1
1
1
1
1
1
1
1
1
1
1
POINT_DATA 82 SCALARS flux_g1 double 
LOOKUP_TABLE   default 
0.640109
0.174392
0.122328
-0.101400
-0.009325
0.473081
0.255922
0.144434
0.071995
0.082212
0.239681
0.427046
0.260617
0.237170
0.319492
0.463271
1.357155
0.806945
0.699006
0.710895
1.353178
1.519034
0.399622
0.072956
-0.303420
0.457017
1.361000
0.780078
0.804978
1.364804
0.137243
0.045582
-0.007560
0.056144
0.679891
0.458899
0.329225
0.212957
0.644755
0.720580
0.080420
0.044005
-0.005733
-0.019018
-0.052016
0.045220
-0.022990
-0.018538
-0.005074
-0.093705
-0.050070
-0.047332
-0.010331
0.035971
-0.107927
-0.028914
-0.025099
-0.005677
0.007519
-0.004171
0.004737
0.004053
0.002909
-0.002996
0.012534
0.743562
0.443108
0.462192
0.672622
0.798502
1.360135
0.723061
0.678944
0.524097
1.468589
0.320031
0.211784
0.093417
-0.041171
-0.048652
0.027250
0.210325
 
