# vtk DataFile Version 3.0 
Date: 3/9/2016   Time: 10:26
ASCII 
DATASET UNSTRUCTURED_GRID 
 
POINTS 1473 float 
0.122977 0.893246 0.000000 
0.169562 0.892641 0.000000 
0.184707 0.933361 0.000000 
0.135865 0.958952 0.000000 
0.107521 0.930532 0.000000 
0.330870 0.944935 0.000000 
0.367838 0.929539 0.000000 
0.394438 0.945411 0.000000 
0.393899 1.000000 0.000000 
0.330705 1.000000 0.000000 
0.508744 0.326634 0.000000 
0.537037 0.325083 0.000000 
0.565059 0.364686 0.000000 
0.553383 0.394463 0.000000 
0.514737 0.401761 0.000000 
0.489012 0.372862 0.000000 
0.727811 0.070363 0.000000 
0.772702 0.057942 0.000000 
0.793472 0.071009 0.000000 
0.794715 0.114373 0.000000 
0.762269 0.133538 0.000000 
0.726380 0.111680 0.000000 
0.000000 0.693660 0.000000 
0.044876 0.694212 0.000000 
0.067515 0.728566 0.000000 
0.054642 0.757502 0.000000 
0.000000 0.759509 0.000000 
0.928783 0.411648 0.000000 
0.943335 0.380897 0.000000 
1.000000 0.380942 0.000000 
1.000000 0.442636 0.000000 
0.945530 0.443624 0.000000 
0.719269 0.000000 0.000000 
0.771953 0.000000 0.000000 
0.772702 0.057942 0.000000 
0.727811 0.070363 0.000000 
0.715977 0.060043 0.000000 
0.932536 0.538027 0.000000 
0.948530 0.507000 0.000000 
1.000000 0.505878 0.000000 
1.000000 0.571306 0.000000 
0.951942 0.571191 0.000000 
0.460605 0.446615 0.000000 
0.501238 0.439821 0.000000 
0.526171 0.469359 0.000000 
0.512336 0.507253 0.000000 
0.475736 0.514393 0.000000 
0.448395 0.483259 0.000000 
0.111630 0.181741 0.000000 
0.136484 0.169093 0.000000 
0.170657 0.189975 0.000000 
0.165182 0.236166 0.000000 
0.124688 0.245295 0.000000 
0.103871 0.225656 0.000000 
0.258947 0.000000 0.000000 
0.314673 0.000000 0.000000 
0.318028 0.061696 0.000000 
0.297421 0.073032 0.000000 
0.256907 0.058938 0.000000 
0.000000 0.260338 0.000000 
0.050294 0.256161 0.000000 
0.071980 0.296556 0.000000 
0.060065 0.321169 0.000000 
0.000000 0.319745 0.000000 
0.267647 0.943923 0.000000 
0.304071 0.928795 0.000000 
0.330870 0.944935 0.000000 
0.330705 1.000000 0.000000 
0.265788 1.000000 0.000000 
0.531239 0.789704 0.000000 
0.565435 0.780364 0.000000 
0.595287 0.807588 0.000000 
0.580792 0.853394 0.000000 
0.553760 0.861215 0.000000 
0.519945 0.822496 0.000000 
0.886180 0.476899 0.000000 
0.930495 0.474459 0.000000 
0.948530 0.507000 0.000000 
0.932536 0.538027 0.000000 
0.891523 0.540744 0.000000 
0.871703 0.509629 0.000000 
0.129739 0.734962 0.000000 
0.169873 0.715697 0.000000 
0.204390 0.740300 0.000000 
0.191246 0.786002 0.000000 
0.176964 0.791561 0.000000 
0.131059 0.764725 0.000000 
0.200563 0.941150 0.000000 
0.237892 0.925739 0.000000 
0.267647 0.943923 0.000000 
0.265788 1.000000 0.000000 
0.206004 1.000000 0.000000 
0.000000 0.630186 0.000000 
0.058306 0.631068 0.000000 
0.068980 0.655734 0.000000 
0.044876 0.694212 0.000000 
0.000000 0.693660 0.000000 
0.760200 0.425398 0.000000 
0.803689 0.421484 0.000000 
0.823342 0.449185 0.000000 
0.809110 0.487484 0.000000 
0.768154 0.491830 0.000000 
0.746996 0.465828 0.000000 
0.313559 0.278285 0.000000 
0.349467 0.267095 0.000000 
0.378326 0.297032 0.000000 
0.366563 0.335646 0.000000 
0.330606 0.341251 0.000000 
0.304222 0.314970 0.000000 
0.469020 0.071213 0.000000 
0.496066 0.057874 0.000000 
0.529878 0.071944 0.000000 
0.529544 0.120421 0.000000 
0.494226 0.135656 0.000000 
0.467170 0.117631 0.000000 
0.425262 0.247664 0.000000 
0.456469 0.234814 0.000000 
0.492378 0.260569 0.000000 
0.484565 0.301716 0.000000 
0.441569 0.311362 0.000000 
0.416904 0.287029 0.000000 
0.692580 0.131255 0.000000 
0.726380 0.111680 0.000000 
0.762269 0.133538 0.000000 
0.760959 0.168094 0.000000 
0.728756 0.190270 0.000000 
0.693430 0.170557 0.000000 
0.392892 0.424907 0.000000 
0.438603 0.419848 0.000000 
0.460605 0.446615 0.000000 
0.448395 0.483259 0.000000 
0.409148 0.492412 0.000000 
0.382145 0.460867 0.000000 
0.626937 0.693148 0.000000 
0.668278 0.684449 0.000000 
0.691924 0.712226 0.000000 
0.681846 0.749689 0.000000 
0.640563 0.757711 0.000000 
0.615907 0.731857 0.000000 
0.831095 0.825108 0.000000 
0.868614 0.825056 0.000000 
0.887789 0.859296 0.000000 
0.871800 0.887966 0.000000 
0.822632 0.889310 0.000000 
0.808163 0.869524 0.000000 
0.394438 0.945411 0.000000 
0.429531 0.930783 0.000000 
0.458377 0.948596 0.000000 
0.456411 1.000000 0.000000 
0.393899 1.000000 0.000000 
0.705386 0.471083 0.000000 
0.746996 0.465828 0.000000 
0.768154 0.491830 0.000000 
0.754219 0.531674 0.000000 
0.716316 0.537877 0.000000 
0.691291 0.507899 0.000000 
0.525900 0.198588 0.000000 
0.559349 0.181421 0.000000 
0.589619 0.197269 0.000000 
0.594326 0.234811 0.000000 
0.556509 0.262961 0.000000 
0.524955 0.246179 0.000000 
0.556509 0.262961 0.000000 
0.594326 0.234811 0.000000 
0.627910 0.251232 0.000000 
0.630113 0.299338 0.000000 
0.614183 0.310724 0.000000 
0.561909 0.292322 0.000000 
0.367659 0.709670 0.000000 
0.402923 0.674711 0.000000 
0.416442 0.674598 0.000000 
0.443868 0.702566 0.000000 
0.434874 0.743968 0.000000 
0.394482 0.756056 0.000000 
0.371078 0.739844 0.000000 
0.857810 0.069078 0.000000 
0.888262 0.050890 0.000000 
0.931411 0.071479 0.000000 
0.928936 0.098816 0.000000 
0.884752 0.123395 0.000000 
0.861499 0.111170 0.000000 
0.398307 0.182063 0.000000 
0.420876 0.167932 0.000000 
0.463764 0.194045 0.000000 
0.456469 0.234814 0.000000 
0.425262 0.247664 0.000000 
0.391764 0.222283 0.000000 
0.220313 0.504456 0.000000 
0.263112 0.490440 0.000000 
0.290540 0.516787 0.000000 
0.282685 0.554261 0.000000 
0.246798 0.567346 0.000000 
0.214697 0.541920 0.000000 
0.064880 0.508842 0.000000 
0.075919 0.482484 0.000000 
0.124637 0.472323 0.000000 
0.147316 0.496354 0.000000 
0.142776 0.531289 0.000000 
0.117136 0.546161 0.000000 
0.071937 0.528498 0.000000 
0.652942 0.514028 0.000000 
0.691291 0.507899 0.000000 
0.716316 0.537877 0.000000 
0.702721 0.574626 0.000000 
0.665894 0.582673 0.000000 
0.639461 0.553207 0.000000 
0.412549 0.065997 0.000000 
0.436183 0.055303 0.000000 
0.469020 0.071213 0.000000 
0.467170 0.117631 0.000000 
0.425925 0.132656 0.000000 
0.404155 0.111163 0.000000 
0.000000 0.000000 0.000000 
0.066350 0.000000 0.000000 
0.066996 0.051431 0.000000 
0.049860 0.064704 0.000000 
0.000000 0.058433 0.000000 
0.539210 0.537410 0.000000 
0.575572 0.531377 0.000000 
0.601297 0.560353 0.000000 
0.588413 0.599040 0.000000 
0.549396 0.606293 0.000000 
0.523602 0.578013 0.000000 
0.111038 0.667902 0.000000 
0.132193 0.654665 0.000000 
0.173778 0.675700 0.000000 
0.169873 0.715697 0.000000 
0.129739 0.734962 0.000000 
0.109485 0.720089 0.000000 
0.642547 0.445523 0.000000 
0.682010 0.439942 0.000000 
0.705386 0.471083 0.000000 
0.691291 0.507899 0.000000 
0.652942 0.514028 0.000000 
0.628708 0.486407 0.000000 
0.135865 0.958952 0.000000 
0.184707 0.933361 0.000000 
0.200563 0.941150 0.000000 
0.206004 1.000000 0.000000 
0.133801 1.000000 0.000000 
0.707286 0.950754 0.000000 
0.750682 0.928014 0.000000 
0.769229 0.941246 0.000000 
0.769597 1.000000 0.000000 
0.708120 1.000000 0.000000 
0.521815 0.954948 0.000000 
0.562492 0.930283 0.000000 
0.582119 0.936699 0.000000 
0.586470 1.000000 0.000000 
0.523130 1.000000 0.000000 
0.000000 0.449963 0.000000 
0.055815 0.445024 0.000000 
0.075919 0.482484 0.000000 
0.064880 0.508842 0.000000 
0.000000 0.504928 0.000000 
0.322966 0.403849 0.000000 
0.376808 0.402737 0.000000 
0.392892 0.424907 0.000000 
0.382145 0.460867 0.000000 
0.340252 0.471972 0.000000 
0.312601 0.439478 0.000000 
0.693791 0.248802 0.000000 
0.730314 0.223822 0.000000 
0.761737 0.242909 0.000000 
0.761833 0.287055 0.000000 
0.742455 0.300756 0.000000 
0.697376 0.280226 0.000000 
0.378326 0.297032 0.000000 
0.416904 0.287029 0.000000 
0.441569 0.311362 0.000000 
0.431739 0.353903 0.000000 
0.388631 0.360181 0.000000 
0.366563 0.335646 0.000000 
0.426879 0.559111 0.000000 
0.461666 0.551598 0.000000 
0.490221 0.582886 0.000000 
0.471186 0.625808 0.000000 
0.444106 0.628321 0.000000 
0.412819 0.594496 0.000000 
0.358703 0.235711 0.000000 
0.391764 0.222283 0.000000 
0.425262 0.247664 0.000000 
0.416904 0.287029 0.000000 
0.378326 0.297032 0.000000 
0.349467 0.267095 0.000000 
0.891523 0.540744 0.000000 
0.932536 0.538027 0.000000 
0.951942 0.571191 0.000000 
0.931883 0.605783 0.000000 
0.897114 0.603774 0.000000 
0.876889 0.572587 0.000000 
0.631464 0.377639 0.000000 
0.672352 0.369583 0.000000 
0.695815 0.407244 0.000000 
0.682010 0.439942 0.000000 
0.642547 0.445523 0.000000 
0.619481 0.419552 0.000000 
0.497069 0.653678 0.000000 
0.536846 0.646175 0.000000 
0.562076 0.673701 0.000000 
0.550628 0.712559 0.000000 
0.511569 0.721683 0.000000 
0.485528 0.693708 0.000000 
0.815331 0.696223 0.000000 
0.860449 0.690017 0.000000 
0.880592 0.729717 0.000000 
0.866750 0.756510 0.000000 
0.824457 0.760834 0.000000 
0.802265 0.728054 0.000000 
0.657603 0.069394 0.000000 
0.665980 0.061595 0.000000 
0.715977 0.060043 0.000000 
0.727811 0.070363 0.000000 
0.726380 0.111680 0.000000 
0.692580 0.131255 0.000000 
0.659845 0.113051 0.000000 
0.452498 0.376564 0.000000 
0.489012 0.372862 0.000000 
0.514737 0.401761 0.000000 
0.501238 0.439821 0.000000 
0.460605 0.446615 0.000000 
0.438603 0.419848 0.000000 
0.330606 0.341251 0.000000 
0.366563 0.335646 0.000000 
0.388631 0.360181 0.000000 
0.376808 0.402737 0.000000 
0.322966 0.403849 0.000000 
0.313767 0.388150 0.000000 
0.823342 0.449185 0.000000 
0.867460 0.445920 0.000000 
0.886180 0.476899 0.000000 
0.871703 0.509629 0.000000 
0.829344 0.513478 0.000000 
0.809110 0.487484 0.000000 
0.679769 0.890287 0.000000 
0.707863 0.876754 0.000000 
0.747222 0.900234 0.000000 
0.750682 0.928014 0.000000 
0.707286 0.950754 0.000000 
0.675291 0.930276 0.000000 
0.302299 0.698906 0.000000 
0.325729 0.686844 0.000000 
0.367659 0.709670 0.000000 
0.371078 0.739844 0.000000 
0.327338 0.763012 0.000000 
0.296169 0.741573 0.000000 
0.592268 0.071827 0.000000 
0.610066 0.059665 0.000000 
0.657603 0.069394 0.000000 
0.659845 0.113051 0.000000 
0.623728 0.134772 0.000000 
0.593307 0.118294 0.000000 
0.514737 0.401761 0.000000 
[...]
CELL_DATA 256
FIELD FieldData 1
material 1 256 int
1
1
1
1
1
1
1
1
1
1
1
1
1
1
1
1
1
1
1
1
1
1
1
1
1
1
1
1
1
1
1
1
1
1
1
1
1
1
1
1
1
1
1
1
1
1
1
1
1
1
1
1
1
1
1
1
1
1
1
1
1
1
1
1
1
1
1
1
1
1
1
1
1
1
1
1
1
1
1
1
1
1
1
1
1
1
1
1
1
1
1
1
1
1
1
1
1
1
1
1
1
1
1
1
1
1
1
1
1
1
1
1
1
1
1
1
1
1
1
1
1
1
1
1
1
1
1
1
1
1
1
1
1
1
1
1
1
1
1
1
1
1
1
1
1
1
1
1
1
1
1
1
1
1
1
1
1
1
1
1
1
1
1
1
1
1
1
1
1
1
1
1
1
1
1
1
1
1
1
1
1
1
1
1
1
1
1
1
1
1
1
1
1
1
1
1
1
1
1
1
1
1
1
1
1
1
1
1
1
1
1
1
1
1
1
1
1
1
1
1
1
1
1
1
1
1
1
1
1
1
1
1
1
1
1
1
1
1
1
1
1
1
1
1
1
1
1
1
1
1
1
1
1
1
1
1
POINT_DATA 1473 SCALARS flux_g1 double 
LOOKUP_TABLE   default 
-0.000076
-0.000051
-0.000198
0.000222
0.001225
-0.000000
0.000000
-0.000000
0.000000
-0.000000
-0.000000
0.000000
0.000000
-0.000000
0.000000
-0.000000
-0.000000
0.000000
-0.000000
0.000000
0.000000
-0.000000
0.361652
-0.172143
0.041434
-0.214976
0.312095
0.000000
0.000000
-0.000000
-0.000000
0.000000
0.000000
-0.000000
0.000000
-0.000000
-0.000000
-0.000000
0.000000
-0.000000
0.000000
0.000000
0.000000
-0.000000
0.000000
-0.000000
0.000000
-0.000000
-0.000171
-0.000046
-0.000011
-0.000185
0.000311
0.000861
0.000005
-0.000002
0.000000
-0.000000
-0.000001
0.321473
-0.151843
0.043729
-0.210252
0.292103
0.000000
-0.000001
0.000000
-0.000001
0.000003
0.000000
-0.000000
0.000000
-0.000000
0.000000
-0.000000
0.000000
-0.000000
0.000000
-0.000000
0.000000
-0.000000
0.000367
-0.000130
0.000015
-0.000026
-0.000169
0.000232
0.000011
0.000003
-0.000003
0.000023
-0.000060
0.292215
-0.169509
0.050063
-0.226008
0.377002
0.000000
0.000000
0.000000
0.000000
0.000000
-0.000000
-0.000000
0.000000
0.000000
-0.000000
0.000000
-0.000000
-0.000000
0.000000
-0.000000
0.000000
-0.000000
0.000000
-0.000000
0.000000
0.000000
-0.000000
0.000000
-0.000000
-0.000000
0.000000
-0.000000
0.000000
-0.000000
0.000000
0.000000
-0.000000
0.000000
-0.000000
-0.000000
-0.000000
0.000000
0.000000
0.000000
0.000000
0.000000
-0.000000
0.000000
-0.000000
-0.000000
0.000000
-0.000000
-0.000000
0.000000
-0.000000
0.000000
-0.000000
0.000000
0.000000
-0.000000
0.000000
-0.000000
-0.000000
0.000000
-0.000000
0.000000
0.000000
0.000000
0.000000
-0.000000
0.000000
-0.000000
0.000000
-0.000000
-0.000000
0.000000
0.000000
0.000000
0.000000
0.000000
0.000000
0.000000
-0.000000
-0.000000
0.000000
-0.000000
0.000000
-0.000000
0.000000
-0.000000
0.000000
0.000000
0.000000
0.000000
-0.000000
0.000001
-0.000000
0.000000
-0.000000
0.000000
-0.000000
-0.066963
0.009178
-0.000971
0.000963
0.001405
-0.003711
0.024867
-0.000000
0.000000
0.000000
-0.000000
0.000000
-0.000000
-0.000000
-0.000000
-0.000000
0.000000
-0.000000
0.000000
0.252151
-0.133097
0.031348
-0.235767
0.350546
-0.000000
0.000000
0.000000
-0.000000
0.000000
-0.000000
0.000049
-0.000066
-0.000010
-0.000093
0.000037
0.000576
0.000000
0.000000
0.000000
0.000000
0.000000
-0.000000
0.000433
-0.000288
0.000113
-0.000342
0.000733
-0.000000
0.000000
-0.000000
0.000000
-0.000000
0.000000
-0.000000
0.000000
-0.000000
0.000000
0.296604
-0.145218
0.051029
-0.197349
0.273989
0.000000
0.000000
0.000000
0.000000
0.000000
-0.000000
-0.000000
-0.000000
-0.000000
-0.000000
-0.000000
0.000000
0.000000
-0.000000
0.000000
0.000000
-0.000000
-0.000000
-0.000000
0.000000
0.000000
-0.000000
0.000000
-0.000000
0.000000
-0.000000
-0.000000
-0.000000
-0.000000
0.000000
-0.000000
-0.000000
-0.000000
-0.000000
0.000000
0.000000
0.000000
-0.000000
0.000000
-0.000000
0.000000
-0.000000
0.000000
0.000000
0.000000
0.000000
0.000000
-0.000000
0.000000
0.000000
-0.000000
0.000000
-0.000000
0.000000
0.000000
-0.000000
-0.000000
-0.000000
-0.000000
-0.000000
0.000000
0.000000
0.000000
0.000000
0.000000
0.000000
-0.000000
-0.000000
-0.000000
-0.000000
-0.000000
0.000000
0.000000
0.000000
-0.000000
0.000000
-0.000000
-0.000000
0.000000
0.000000
-0.000000
0.000000
0.000000
0.000000
-0.000000
-0.000000
0.000000
0.000000
-0.000000
0.000000
-0.000000
-0.000000
0.000000
0.000000
0.000000
0.000000
-0.000000
0.000000
-0.000000
0.000000
-0.000000
-0.000000
-0.000000
-0.000000
-0.000000
-0.000000
0.000000
-0.000000
0.000000
0.000000
0.000000
-0.000000
0.000000
-0.000000
0.000000
0.000000
0.000001
-0.000000
-0.000000
0.000000
-0.000001
0.000001
-0.000000
0.000000
0.000000
0.000000
0.000000
0.000000
-0.000011
0.000003
0.000000
0.000000
0.000004
-0.000000
-0.000000
0.000000
-0.000000
0.000000
-0.000000
0.000000
-0.051260
0.014189
0.000048
0.002979
0.000800
0.015357
0.000000
0.000000
0.000000
0.000000
0.000000
-0.000000
-0.000000
0.000000
-0.000000
0.000000
-0.000000
0.000000
-0.000014
0.000011
0.000002
0.000001
0.000035
-0.000090
0.000000
0.000000
0.000000
0.000000
0.000000
-0.000000
0.383336
-0.176600
0.031135
-0.239388
0.338776
0.000000
-0.000000
0.000000
-0.000000
0.000000
-0.000000
-0.000000
0.000000
-0.000000
-0.000000
0.000000
-0.000000
0.000000
-0.000000
-0.000000
0.000000
-0.000000
0.000000
0.000000
0.298361
-0.154989
0.046769
-0.217272
0.346915
0.000000
0.000000
0.000000
-0.000000
0.000000
-0.000000
0.000000
0.000000
0.000000
0.000000
0.000000
-0.000000
0.000000
-0.000000
0.000000
-0.000000
-0.000000
0.000000
0.000000
-0.000000
0.000000
-0.000000
0.000000
-0.000000
0.000000
-0.000000
0.000000
-0.000000
-0.000000
0.000000
0.000270
0.000109
-0.000093
0.000030
-0.000277
0.000495
-0.000000
0.000000
-0.000000
0.000000
-0.000000
-0.000000
-0.000000
-0.000000
-0.000000
0.000000
0.000000
0.000000
-0.000000
0.000000
-0.000000
0.000000
0.000000
0.000000
-0.000000
0.000000
0.000000
-0.000000
0.000000
-0.000000
0.000000
-0.000000
-0.000000
0.000000
-0.000000
0.000000
0.000397
-0.000127
0.000047
-0.000097
0.000299
-0.000511
-0.000000
-0.000000
-0.000000
-0.000000
-0.000000
0.000000
0.000000
0.000000
0.000000
-0.000000
0.000000
-0.000000
0.010033
-0.000148
0.002521
-0.001862
0.020838
-0.059321
0.343838
-0.164988
0.047004
-0.211055
0.296459
0.000000
-0.000000
0.000000
0.000000
-0.000000
-0.000000
-0.000000
0.000000
-0.000000
0.000000
-0.000000
0.000000
-0.000000
0.000000
0.000000
-0.000000
-0.000000
0.000007
0.000001
0.000001
0.000003
0.000004
-0.000038
0.000000
0.000000
0.000000
0.000000
0.000000
0.000000
-0.000000
0.000000
-0.000000
0.000000
0.000000
0.000000
-0.000000
-0.000000
-0.000000
0.000000
-0.000000
0.000000
-0.000000
0.000000
-0.000000
0.000000
-0.000000
-0.000000
0.000000
0.000000
0.000000
-0.000000
0.000000
-0.000000
0.000000
0.000000
0.000000
-0.000000
0.000002
-0.000002
-0.000000
0.000000
-0.000000
0.000000
0.000000
0.000000
0.000000
0.000000
-0.000000
-0.000000
0.000000
-0.000000
0.000000
-0.000000
0.000000
-0.000000
0.000010
-0.000001
0.000002
0.000002
0.000008
-0.000043
0.000239
-0.000098
0.000006
-0.000017
-0.000106
0.000124
-0.000000
0.000000
-0.000000
0.000000
0.000000
-0.000000
0.000000
-0.000000
0.000000
-0.000000
0.000000
0.000000
0.000000
0.000000
-0.000000
0.000000
-0.000000
-0.000000
0.000000
-0.000000
0.000000
0.000000
0.292803
-0.183119
0.011847
-0.010813
-0.215822
0.376408
-0.000000
0.000000
-0.000000
-0.000000
0.000000
-0.000000
-0.000000
-0.000000
0.000000
-0.000000
0.000000
-0.000000
-0.000000
0.000000
-0.000000
0.000000
-0.000000
-0.000000
-0.000000
-0.000000
-0.000000
0.000000
0.000000
0.000000
-0.000000
0.000000
-0.000000
0.000000
-0.000000
-0.051820
0.011604
0.000219
0.002682
0.001457
0.015139
0.000000
-0.000000
0.000000
-0.000000
0.000000
-0.000000
0.000288
-0.000113
0.000006
-0.000013
-0.000146
0.000198
0.010719
-0.000282
0.001325
0.002149
0.000488
0.024031
-0.062258
0.000001
-0.000000
0.000000
-0.000001
0.000003
-0.000002
0.000000
-0.000000
0.000000
-0.000000
-0.000000
0.000000
0.000000
0.000000
0.000000
-0.000000
-0.000000
-0.000000
-0.000000
0.000000
-0.000000
0.000000
0.000000
0.000000
-0.000000
0.000000
0.000000
-0.000000
-0.000000
0.000000
-0.000000
0.000000
-0.000000
-0.000000
0.000000
0.000000
0.000000
0.000000
0.000000
-0.000000
-0.000000
0.000000
-0.000000
0.000000
0.000000
0.000000
-0.000000
0.000000
-0.000000
0.000000
-0.000000
-0.000000
-0.000000
0.000000
-0.000000
0.000000
0.000000
0.000389
-0.000161
0.000036
-0.000121
0.000302
-0.000194
0.000000
0.000000
0.000000
0.000000
0.000000
-0.000000
-0.051883
0.013295
-0.001149
0.004264
0.009350
0.000000
0.000000
0.000000
0.000000
0.000000
-0.000000
-0.000000
0.000000
-0.000000
0.000000
-0.000000
0.000000
0.000000
-0.000000
-0.000000
0.000000
-0.000000
0.000000
-0.000000
0.000000
-0.000000
0.000000
-0.000000
0.000000
-0.000000
0.000000
-0.000000
0.000002
-0.000001
-0.000000
0.000000
0.000000
0.000000
-0.000000
0.000000
0.000001
0.000004
0.000003
0.000001
0.000021
-0.000051
0.000000
-0.000000
0.000000
-0.000000
-0.000000
0.000006
-0.000034
-0.000005
-0.000072
0.000107
0.000293
0.000000
-0.000000
0.000000
-0.000000
0.000000
0.000000
-0.000000
-0.000000
-0.000000
0.000000
0.000000
0.000000
0.000000
0.000000
0.000000
0.000000
-0.000000
-0.000000
-0.000000
-0.000000
-0.000000
0.000000
0.000000
-0.000000
0.000000
-0.000000
0.000000
0.000000
-0.000000
0.000000
0.000000
-0.000000
0.000000
-0.000000
0.000001
-0.000000
0.000000
-0.000000
0.000000
0.000000
0.012601
-0.000158
0.002654
0.015388
-0.056596
0.000011
-0.000001
0.000001
0.000001
0.000006
-0.000036
0.000000
-0.000000
-0.000000
-0.000000
-0.000000
0.000000
0.339130
-0.162665
0.040403
-0.233432
0.337512
0.000000
-0.000000
0.000000
0.000000
-0.000000
-0.000000
0.278516
-0.175516
0.064032
-0.217872
0.361132
0.000000
0.000000
0.000000
0.000000
0.000000
-0.000000
-0.000082
0.000031
-0.000008
0.000005
0.000021
0.000000
-0.000000
-0.000000
0.000000
-0.000000
-0.000000
0.000000
-0.000000
0.000000
-0.000000
0.000000
0.000000
-0.000000
-0.000000
-0.000000
0.000000
-0.062086
0.010327
0.000261
0.002531
-0.000682
0.019596
0.000000
0.000000
0.000000
0.000000
0.000000
-0.000000
-0.000000
0.000000
-0.000000
0.000000
0.000000
0.350069
-0.126892
-0.131915
0.314935
-0.031787
0.011988
0.001776
0.006820
0.019028
-0.066737
-0.000000
0.000000
0.000000
-0.000000
0.000000
0.000000
0.000870
-0.000294
-0.000034
-0.000022
-0.000660
0.001090
0.000000
-0.000000
0.000000
-0.000000
0.000000
-0.000000
-0.000000
-0.000000
0.000000
0.000000
0.000000
-0.000000
0.000000
-0.000000
-0.000000
0.000000
-0.000000
0.000000
-0.000000
0.000000
-0.000000
0.000000
-0.000000
-0.000000
0.000000
-0.000000
0.000007
0.000003
0.000002
0.000004
0.000006
-0.000046
-0.056824
0.011642
-0.000516
0.002299
0.016429
-0.065525
0.009478
-0.000396
0.001164
0.001222
-0.004262
0.022171
0.000000
0.000000
0.000000
0.000000
0.000000
-0.000000
0.000000
-0.000000
-0.000000
-0.000000
0.000000
0.000000
0.000000
0.000000
-0.000000
0.000000
-0.000000
-0.000000
0.000000
0.000000
-0.000000
-0.000000
0.000000
-0.000000
0.000000
-0.000000
0.000000
0.000000
-0.000000
-0.000000
0.000000
-0.000000
0.000000
-0.000000
0.000000
-0.000000
0.000000
0.000000
-0.067020
0.010490
-0.000613
0.001198
0.001512
-0.002682
0.023532
-0.000000
0.000000
-0.000000
0.000000
-0.000000
0.000000
0.000000
-0.000000
0.000000
-0.000000
-0.000000
-0.000067
-0.000060
0.000003
-0.000183
0.000437
0.000406
0.287823
-0.167977
0.051433
-0.222333
0.362256
0.000000
-0.000000
0.000000
-0.000000
0.000001
0.000001
-0.000000
-0.000000
-0.000000
-0.000000
0.000000
0.000000
-0.000000
0.000000
-0.000000
-0.000000
-0.000000
0.000000
-0.000000
0.000000
-0.000000
0.000000
-0.000000
0.000000
0.000000
-0.000000
-0.000000
-0.000000
0.000000
0.000000
-0.000000
0.000000
-0.000000
-0.000000
-0.000000
0.000000
0.000000
0.000000
-0.000000
0.000000
-0.000000
0.000000
0.000000
0.000000
-0.000000
0.000000
0.000000
-0.000000
0.000000
0.000003
0.000004
0.000002
-0.000001
0.000022
-0.000057
-0.000000
0.000000
0.000000
-0.000000
0.000000
-0.000000
0.001339
-0.000506
0.000141
-0.000071
-0.000468
-0.000000
0.000000
-0.000000
0.000000
-0.000000
-0.000000
0.000000
-0.000000
-0.000000
0.000000
-0.000000
0.000000
-0.000000
0.000000
-0.000000
0.000000
0.000000
-0.000000
0.000000
-0.000000
0.000000
-0.000000
0.000000
-0.000000
-0.000000
-0.000000
-0.000000
0.000000
0.000000
-0.000000
0.000000
0.000000
-0.000000
-0.000000
0.279195
-0.102010
-0.085239
0.205218
0.000000
-0.000000
0.000000
-0.000000
0.000000
-0.000000
-0.000000
0.000000
-0.000000
0.000000
0.000000
-0.000000
0.000000
0.000000
-0.000000
0.000000
-0.000000
-0.000000
0.000000
-0.000000
0.000000
0.000000
0.325747
-0.146732
0.036012
-0.249589
0.306486
-0.000000
0.000000
0.000000
-0.000000
0.000000
0.000000
0.000000
-0.000000
-0.000000
-0.000000
-0.000000
0.000000
0.000000
0.000000
0.000000
0.000000
0.000000
-0.000000
0.000000
-0.000000
0.000000
-0.000000
-0.000000
0.000000
0.000000
0.000000
0.000000
0.000000
0.000000
-0.000000
-0.055222
0.009060
0.003772
0.001151
0.006043
-0.004220
0.000000
0.000000
0.000000
-0.000000
0.000000
-0.000000
0.000000
-0.000000
-0.000000
-0.000000
-0.000000
0.000000
0.000000
-0.000000
0.000000
-0.000000
0.000001
0.000001
-0.000000
-0.000000
0.000000
-0.000000
0.000458
-0.000442
0.000017
-0.000507
0.000759
0.001987
0.000000
-0.000000
0.000000
-0.000000
-0.000000
0.000000
-0.000000
0.000000
-0.000000
0.000000
-0.000000
0.000000
-0.000000
0.000000
-0.000000
-0.000000
0.000000
0.000000
0.000000
-0.000000
0.000000
0.000000
-0.000000
-0.000000
0.000000
0.000000
0.000000
0.000000
0.000000
-0.000000
0.000000
0.000000
0.000000
0.000000
0.000000
-0.000000
0.000001
-0.000000
-0.000000
-0.000000
-0.000000
0.000000
0.349125
-0.171471
0.044369
-0.219826
0.316929
-0.000015
0.000003
0.000004
0.000004
0.000003
0.000038
-0.000103
0.000000
-0.000000
-0.000000
0.000000
0.000000
-0.000000
0.000000
-0.000000
0.000000
0.000000
0.000000
0.000000
-0.000000
0.000000
-0.000000
0.000000
-0.000000
0.000000
0.000000
-0.000000
0.000000
-0.000000
0.000000
-0.000000
0.000000
0.000000
0.000000
-0.000000
0.000000
-0.000000
0.000000
-0.000000
0.000000
-0.000000
-0.000000
0.000000
-0.000000
0.000000
-0.000000
0.000000
-0.000000
0.000000
0.000000
0.000000
-0.000000
0.000000
0.000000
-0.000000
0.000000
-0.000000
-0.000000
-0.000000
-0.000000
0.000000
-0.000000
0.000000
0.000000
-0.000000
0.000000
0.000000
0.000000
0.000000
-0.000000
-0.053781
0.012385
-0.000412
0.002060
0.016595
0.000000
-0.000000
0.000000
-0.000000
-0.000000
0.000000
-0.000000
0.000000
-0.000000
0.000000
-0.000000
0.000000
0.000000
0.000000
0.000000
0.000000
-0.000000
-0.000000
0.000000
0.000000
-0.000000
0.000191
-0.000080
0.000007
-0.000002
-0.000108
0.000171
-0.021795
0.008523
-0.002804
0.003444
0.006337
0.000115
-0.000109
0.000039
-0.000323
0.000810
0.000004
0.000003
0.000002
0.000002
0.000022
-0.000070
0.000000
0.000000
0.000000
0.000000
0.000000
-0.000000
-0.000000
0.000000
-0.000000
0.000000
-0.000000
0.000000
0.000001
-0.000000
0.000000
0.000000
-0.000000
0.000000
-0.000001
 
