# vtk DataFile Version 3.0 
Date: 3/9/2016   Time: 10:25
ASCII 
DATASET UNSTRUCTURED_GRID 
 
POINTS 24336 float 
0.101701 0.224786 0.000000 
0.110118 0.217453 0.000000 
0.119926 0.222616 0.000000 
0.119132 0.232334 0.000000 
0.106062 0.235531 0.000000 
0.972800 0.108688 0.000000 
0.982927 0.109353 0.000000 
0.987340 0.117159 0.000000 
0.982726 0.125617 0.000000 
0.972636 0.125889 0.000000 
0.967505 0.117772 0.000000 
0.610759 0.125377 0.000000 
0.614204 0.120140 0.000000 
0.624801 0.118388 0.000000 
0.629881 0.122393 0.000000 
0.629975 0.131503 0.000000 
0.622572 0.137126 0.000000 
0.613216 0.133757 0.000000 
0.155030 0.748843 0.000000 
0.163198 0.743991 0.000000 
0.172386 0.749439 0.000000 
0.172138 0.757234 0.000000 
0.161391 0.763492 0.000000 
0.155568 0.760880 0.000000 
0.391491 0.141340 0.000000 
0.397655 0.132978 0.000000 
0.409757 0.136871 0.000000 
0.408770 0.147618 0.000000 
0.395637 0.149691 0.000000 
0.881259 0.196467 0.000000 
0.892998 0.189107 0.000000 
0.900611 0.197292 0.000000 
0.895968 0.206825 0.000000 
0.884142 0.206645 0.000000 
0.514855 0.394056 0.000000 
0.520665 0.384500 0.000000 
0.532323 0.387689 0.000000 
0.534674 0.393671 0.000000 
0.528787 0.402758 0.000000 
0.519000 0.402041 0.000000 
0.531885 0.326757 0.000000 
0.537656 0.319881 0.000000 
0.547938 0.321547 0.000000 
0.551075 0.330029 0.000000 
0.544932 0.337874 0.000000 
0.535094 0.336064 0.000000 
0.441545 0.467184 0.000000 
0.447328 0.459755 0.000000 
0.456676 0.460571 0.000000 
0.460729 0.469677 0.000000 
0.455209 0.477616 0.000000 
0.445849 0.476847 0.000000 
0.167539 0.077567 0.000000 
0.176586 0.072966 0.000000 
0.184046 0.077062 0.000000 
0.184831 0.086229 0.000000 
0.175320 0.092771 0.000000 
0.167806 0.088557 0.000000 
0.248205 0.170988 0.000000 
0.255151 0.163388 0.000000 
0.264095 0.164961 0.000000 
0.267385 0.174851 0.000000 
0.260738 0.182134 0.000000 
0.252283 0.180659 0.000000 
0.267692 0.633294 0.000000 
0.276853 0.630979 0.000000 
0.283416 0.637391 0.000000 
0.282617 0.644965 0.000000 
0.271298 0.650109 0.000000 
0.264190 0.643060 0.000000 
0.517560 0.786320 0.000000 
0.524159 0.780994 0.000000 
0.533334 0.784065 0.000000 
0.535435 0.793184 0.000000 
0.526805 0.800861 0.000000 
0.519982 0.799203 0.000000 
0.554190 0.364923 0.000000 
0.560904 0.355926 0.000000 
0.571240 0.358231 0.000000 
0.573881 0.365966 0.000000 
0.567501 0.374431 0.000000 
0.556607 0.371444 0.000000 
0.402692 0.295296 0.000000 
0.410567 0.290129 0.000000 
0.418293 0.293705 0.000000 
0.419555 0.303948 0.000000 
0.409221 0.309518 0.000000 
0.403952 0.306572 0.000000 
0.909613 0.872713 0.000000 
0.915854 0.865493 0.000000 
0.924936 0.866731 0.000000 
0.928911 0.876653 0.000000 
0.922319 0.884101 0.000000 
0.911191 0.880254 0.000000 
0.286167 0.721080 0.000000 
0.296224 0.718253 0.000000 
0.302153 0.723625 0.000000 
0.300433 0.734129 0.000000 
0.290713 0.736790 0.000000 
0.284290 0.731298 0.000000 
0.641761 0.388834 0.000000 
0.649871 0.383234 0.000000 
0.659081 0.387830 0.000000 
0.659636 0.396669 0.000000 
0.651610 0.402661 0.000000 
0.642086 0.397566 0.000000 
0.276839 0.176748 0.000000 
0.283106 0.169858 0.000000 
0.293462 0.172417 0.000000 
0.295797 0.181109 0.000000 
0.289440 0.188189 0.000000 
0.279781 0.186068 0.000000 
0.242381 0.060460 0.000000 
0.250084 0.055817 0.000000 
0.258531 0.060138 0.000000 
0.258917 0.070378 0.000000 
0.251497 0.075173 0.000000 
0.242474 0.070921 0.000000 
0.332455 0.929753 0.000000 
0.343288 0.927122 0.000000 
0.350279 0.935398 0.000000 
0.348177 0.942662 0.000000 
0.337946 0.946192 0.000000 
0.332368 0.941774 0.000000 
0.792660 0.414704 0.000000 
0.800708 0.407005 0.000000 
0.811238 0.412353 0.000000 
0.811902 0.417998 0.000000 
0.803432 0.426317 0.000000 
0.794215 0.422413 0.000000 
0.524519 0.588141 0.000000 
0.532034 0.580346 0.000000 
0.540260 0.582073 0.000000 
0.543789 0.591707 0.000000 
0.536251 0.599587 0.000000 
0.529473 0.598992 0.000000 
0.572034 0.502054 0.000000 
0.580733 0.495727 0.000000 
0.589157 0.499966 0.000000 
0.590413 0.508980 0.000000 
0.581818 0.515332 0.000000 
0.573451 0.511540 0.000000 
0.210196 0.909046 0.000000 
0.215857 0.900437 0.000000 
0.225366 0.900857 0.000000 
0.229916 0.909794 0.000000 
0.224482 0.918232 0.000000 
0.215332 0.917876 0.000000 
0.096599 0.165746 0.000000 
0.103036 0.161664 0.000000 
0.112727 0.166129 0.000000 
0.113497 0.175088 0.000000 
0.106209 0.180541 0.000000 
0.096436 0.176234 0.000000 
0.640659 0.107165 0.000000 
0.648190 0.102963 0.000000 
0.656971 0.107813 0.000000 
0.656645 0.117886 0.000000 
0.647746 0.122556 0.000000 
0.640510 0.117760 0.000000 
0.975220 0.037198 0.000000 
0.982053 0.036463 0.000000 
0.988546 0.047371 0.000000 
0.983046 0.055532 0.000000 
0.976220 0.055906 0.000000 
0.969190 0.047819 0.000000 
0.097202 0.030878 0.000000 
0.107488 0.026861 0.000000 
0.114568 0.033369 0.000000 
0.108279 0.045376 0.000000 
0.098425 0.043522 0.000000 
0.176013 0.673533 0.000000 
0.184071 0.668146 0.000000 
0.192659 0.672103 0.000000 
0.193590 0.681691 0.000000 
0.185007 0.687462 0.000000 
0.177189 0.683849 0.000000 
0.000000 0.477064 0.000000 
0.012513 0.477011 0.000000 
0.017325 0.485471 0.000000 
0.012726 0.493620 0.000000 
0.000000 0.493696 0.000000 
0.829318 0.912269 0.000000 
0.836625 0.906949 0.000000 
0.845345 0.910172 0.000000 
0.847129 0.920952 0.000000 
0.839167 0.926508 0.000000 
0.830277 0.922539 0.000000 
0.471661 0.397190 0.000000 
0.483740 0.396949 0.000000 
0.487649 0.403439 0.000000 
0.484579 0.411659 0.000000 
0.471671 0.413857 0.000000 
0.467655 0.407764 0.000000 
0.460772 0.859769 0.000000 
0.470340 0.859927 0.000000 
0.475290 0.866968 0.000000 
0.470612 0.876638 0.000000 
0.460323 0.876659 0.000000 
0.456318 0.870483 0.000000 
0.914060 0.697689 0.000000 
0.924296 0.697629 0.000000 
0.929125 0.705487 0.000000 
0.924314 0.714264 0.000000 
0.914372 0.714368 0.000000 
0.909505 0.705890 0.000000 
0.399932 0.946917 0.000000 
0.410615 0.943921 0.000000 
0.417500 0.952117 0.000000 
0.415652 0.958302 0.000000 
0.403923 0.962079 0.000000 
0.398280 0.956022 0.000000 
0.535648 0.479354 0.000000 
0.546973 0.471738 0.000000 
0.552477 0.474090 0.000000 
0.554468 0.484962 0.000000 
0.545835 0.491115 0.000000 
0.535757 0.485577 0.000000 
0.707431 0.427778 0.000000 
0.714468 0.422384 0.000000 
0.724286 0.426726 0.000000 
0.724977 0.437127 0.000000 
0.717316 0.441945 0.000000 
0.707300 0.436379 0.000000 
0.077135 0.515121 0.000000 
0.087806 0.514465 0.000000 
0.092934 0.522621 0.000000 
0.089325 0.530274 0.000000 
0.077980 0.531291 0.000000 
0.073412 0.523879 0.000000 
0.496190 0.525171 0.000000 
0.504182 0.518445 0.000000 
0.514730 0.525232 0.000000 
0.514938 0.532687 0.000000 
0.507680 0.538642 0.000000 
0.497975 0.534665 0.000000 
0.483236 0.496204 0.000000 
0.488793 0.487768 0.000000 
0.499291 0.489005 0.000000 
0.502256 0.494644 0.000000 
0.496306 0.505707 0.000000 
0.488981 0.506270 0.000000 
0.838413 0.956771 0.000000 
0.845295 0.953811 0.000000 
0.854464 0.959067 0.000000 
0.853914 0.968654 0.000000 
0.846197 0.972960 0.000000 
0.837766 0.968271 0.000000 
0.605767 0.844456 0.000000 
0.612356 0.835570 0.000000 
0.623247 0.839048 0.000000 
0.625208 0.846261 0.000000 
0.619079 0.853916 0.000000 
0.607839 0.851142 0.000000 
0.115296 0.310086 0.000000 
0.125065 0.307476 0.000000 
0.131799 0.314630 0.000000 
0.128951 0.323938 0.000000 
0.119572 0.326180 0.000000 
0.112867 0.319108 0.000000 
0.600605 0.701263 0.000000 
0.608418 0.695574 0.000000 
0.617059 0.699228 0.000000 
0.618298 0.709423 0.000000 
0.610709 0.714943 0.000000 
0.601822 0.711333 0.000000 
0.149419 0.858107 0.000000 
0.154554 0.849741 0.000000 
0.162590 0.849335 0.000000 
0.168928 0.858715 0.000000 
0.163739 0.866931 0.000000 
0.155426 0.867397 0.000000 
0.393667 0.310908 0.000000 
0.403952 0.306572 0.000000 
0.409221 0.309518 0.000000 
0.410813 0.319571 0.000000 
0.399444 0.326039 0.000000 
0.394269 0.322802 0.000000 
0.525540 0.164367 0.000000 
0.531663 0.157756 0.000000 
0.541396 0.159594 0.000000 
0.544202 0.169972 0.000000 
0.538419 0.176064 0.000000 
0.528446 0.174194 0.000000 
0.867657 0.077568 0.000000 
0.875876 0.073282 0.000000 
0.883569 0.077401 0.000000 
0.883784 0.088335 0.000000 
0.875470 0.092697 0.000000 
0.867711 0.088581 0.000000 
0.648843 0.740377 0.000000 
0.654786 0.734729 0.000000 
0.666433 0.737604 0.000000 
0.668033 0.745764 0.000000 
0.659469 0.753200 0.000000 
0.650424 0.749656 0.000000 
0.783231 0.527835 0.000000 
0.784911 0.522780 0.000000 
0.793417 0.519276 0.000000 
0.801978 0.524686 0.000000 
0.802623 0.532871 0.000000 
0.794932 0.539246 0.000000 
0.788670 0.537934 0.000000 
0.134636 0.459337 0.000000 
0.144986 0.459363 0.000000 
0.149216 0.465500 0.000000 
0.144497 0.475919 0.000000 
0.135815 0.476751 0.000000 
0.130214 0.469333 0.000000 
0.501534 0.791448 0.000000 
0.508542 0.784233 0.000000 
0.517560 0.786320 0.000000 
0.519982 0.799203 0.000000 
0.514532 0.802777 0.000000 
0.503880 0.799344 0.000000 
0.881180 0.230743 0.000000 
0.886611 0.223092 0.000000 
0.895623 0.222791 0.000000 
0.900943 0.232039 0.000000 
0.896197 0.239783 0.000000 
0.887089 0.240181 0.000000 
0.098633 0.305867 0.000000 
0.108556 0.303083 0.000000 
0.115296 0.310086 0.000000 
0.112867 0.319108 0.000000 
0.103074 0.321723 0.000000 
0.096485 0.314903 0.000000 
0.621139 0.728703 0.000000 
0.628261 0.723376 0.000000 
0.637304 0.726720 0.000000 
0.638664 0.737143 0.000000 
0.632129 0.742537 0.000000 
0.622284 0.739106 0.000000 
0.090727 0.472702 0.000000 
0.101164 0.472420 0.000000 
0.105820 0.479545 0.000000 
0.101562 0.488878 0.000000 
0.091124 0.489122 0.000000 
0.086480 0.481925 0.000000 
0.405521 0.403989 0.000000 
0.410482 0.396649 0.000000 
0.421548 0.397468 0.000000 
0.425004 0.405930 0.000000 
0.419885 0.413793 0.000000 
0.408997 0.412548 0.000000 
0.720464 0.267101 0.000000 
0.727738 0.258500 0.000000 
0.735152 0.259031 0.000000 
0.739579 0.269687 0.000000 
0.733478 0.277038 0.000000 
0.723830 0.275352 0.000000 
0.106963 0.580103 0.000000 
0.119506 0.580949 0.000000 
[...]
CELL_DATA 4096
FIELD FieldData 1
material 1 4096 int
1
1
1
1
1
1
1
1
1
1
1
1
1
1
1
1
1
1
1
1
1
1
1
1
1
1
1
1
1
1
1
1
1
1
1
1
1
1
1
1
1
1
1
1
1
1
1
1
1
1
1
1
1
1
1
1
1
1
1
1
1
1
1
1
1
1
1
1
1
1
1
1
1
1
1
1
1
1
1
1
1
1
1
1
1
1
1
1
1
1
1
1
1
1
1
1
1
1
1
1
1
1
1
1
1
1
1
1
1
1
1
1
1
1
1
1
1
1
1
1
1
1
1
1
1
1
1
1
1
1
1
1
1
1
1
1
1
1
1
1
1
1
1
1
1
1
1
1
1
1
1
1
1
1
1
1
1
1
1
1
1
1
1
1
1
1
1
1
1
1
1
1
1
1
1
1
1
1
1
1
1
1
1
1
1
1
1
1
1
1
1
1
1
1
1
1
1
1
1
1
1
1
1
1
1
1
1
1
1
1
1
1
1
1
1
1
1
1
1
1
1
1
1
1
1
1
1
1
1
1
1
1
1
1
1
1
1
1
1
1
1
1
1
1
1
1
1
1
1
1
1
1
1
1
1
1
1
1
1
1
1
1
1
1
1
1
1
1
1
1
1
1
1
1
1
1
1
1
1
1
1
1
1
1
1
1
1
1
1
1
1
1
1
1
1
1
1
1
1
1
1
1
1
1
1
1
1
1
1
1
1
1
1
1
1
1
1
1
1
1
1
1
1
1
1
1
1
1
1
1
1
1
1
1
1
1
1
1
1
1
1
1
1
1
1
1
1
1
1
1
1
1
1
1
1
1
1
1
1
1
1
1
1
1
1
1
1
1
1
1
1
1
1
1
1
1
1
1
1
1
1
1
1
1
1
1
1
1
1
1
1
1
1
1
1
1
1
1
1
1
1
1
1
1
1
1
1
1
1
1
1
1
1
1
1
1
1
1
1
1
1
1
1
1
1
1
1
1
1
1
1
1
1
1
1
1
1
1
1
1
1
1
1
1
1
1
1
1
1
1
1
1
1
1
1
1
1
1
1
1
1
1
1
1
1
1
1
1
1
1
1
1
1
1
1
1
1
1
1
1
1
1
1
1
1
1
1
1
1
1
1
1
1
1
1
1
1
1
1
1
1
1
1
1
1
1
1
1
1
1
1
1
1
1
1
1
1
1
1
1
1
1
1
1
1
1
1
1
1
1
1
1
1
1
1
1
1
1
1
1
1
1
1
1
1
1
1
1
1
1
1
1
1
1
1
1
1
1
1
1
1
1
1
1
1
1
1
1
1
1
1
1
1
1
1
1
1
1
1
1
1
1
1
1
1
1
1
1
1
1
1
1
1
1
1
1
1
1
1
1
1
1
1
1
1
1
1
1
1
1
1
1
1
1
1
1
1
1
1
1
1
1
1
1
1
1
1
1
1
1
1
1
1
1
1
1
1
1
1
1
1
1
1
1
1
1
1
1
1
1
1
1
1
1
1
1
1
1
1
1
1
1
1
1
1
1
1
1
1
1
1
1
1
1
1
1
1
1
1
1
1
1
1
1
1
1
1
1
1
1
1
1
1
1
1
1
1
1
1
1
1
1
1
1
1
1
1
1
1
1
1
1
1
1
1
1
1
1
1
1
1
1
1
1
1
1
1
1
1
1
1
1
1
1
1
1
1
1
1
1
1
1
1
1
1
1
1
1
1
1
1
1
1
1
1
1
1
1
1
1
1
1
1
1
1
1
1
1
1
1
1
1
1
1
1
1
1
1
1
1
1
1
1
1
1
1
1
1
1
1
1
1
1
1
1
1
1
1
1
1
1
1
1
1
1
1
1
1
1
1
1
1
1
1
1
1
1
1
1
1
1
1
1
1
1
1
1
1
1
1
1
1
1
1
1
1
1
1
1
1
1
1
1
1
1
1
1
1
1
1
1
1
1
1
1
1
1
1
1
1
1
1
1
1
1
1
1
1
1
1
1
1
1
1
1
1
1
1
1
1
1
1
1
1
1
1
1
1
1
1
1
1
1
1
1
1
1
1
1
1
1
1
1
1
1
1
1
1
1
1
1
1
1
1
1
1
1
1
1
1
1
1
1
1
1
1
1
1
1
1
1
1
1
1
1
1
1
1
1
1
1
1
1
1
1
1
1
1
1
1
1
1
1
1
1
1
1
1
1
1
1
1
1
1
1
1
1
1
1
1
1
1
1
1
1
1
1
1
1
1
1
1
1
1
1
1
1
1
1
1
1
1
1
1
1
1
1
1
1
1
1
1
1
1
1
1
1
1
1
1
1
1
1
1
1
1
1
1
1
1
1
1
1
1
1
1
1
1
1
1
1
1
1
1
1
1
1
1
1
1
1
1
1
1
1
1
1
1
1
1
1
1
1
1
1
1
1
1
1
1
1
1
1
1
1
1
1
1
1
1
1
1
1
1
1
1
1
1
1
1
1
1
1
1
1
1
1
1
1
1
1
1
1
1
1
1
1
1
1
1
1
1
1
1
1
1
1
1
1
1
1
1
1
1
1
1
1
1
1
1
1
1
1
1
1
1
1
1
1
1
1
1
1
1
1
1
1
1
1
1
1
1
1
1
1
1
1
1
1
1
1
1
1
1
1
1
1
1
1
1
1
1
1
1
1
1
1
1
1
1
1
1
1
1
1
1
1
1
1
1
1
1
1
1
1
1
1
1
1
1
1
1
1
1
1
1
1
1
1
1
1
1
1
1
1
1
1
1
1
1
1
1
1
1
1
1
1
1
1
1
1
1
1
1
1
1
1
1
1
1
1
1
1
1
1
1
1
1
1
1
1
1
1
1
1
1
1
1
1
1
1
1
1
1
1
1
1
1
1
1
1
1
1
1
1
1
1
1
1
1
1
1
1
1
1
1
1
1
1
1
1
1
1
1
1
1
1
1
1
1
1
1
1
1
1
1
1
1
1
1
1
1
1
1
1
1
1
1
1
1
1
1
1
1
1
1
1
1
1
1
1
1
1
1
1
1
1
1
1
1
1
1
1
1
1
1
1
1
1
1
1
1
1
1
1
1
1
1
1
1
1
1
1
1
1
1
1
1
1
1
1
1
1
1
1
1
1
1
1
1
1
1
1
1
1
1
1
1
1
1
1
1
1
1
1
1
1
1
1
1
1
1
1
1
1
1
1
1
1
1
1
1
1
1
1
1
1
1
1
1
1
1
1
1
1
1
1
1
1
1
1
1
1
1
1
1
1
1
1
1
1
1
1
1
1
1
1
1
1
1
1
1
1
1
1
1
1
1
1
1
1
1
1
1
1
1
1
1
1
1
1
1
1
1
1
1
1
1
1
1
1
1
1
1
1
1
1
1
1
1
1
1
1
1
1
1
1
1
1
1
1
1
1
1
1
1
1
1
1
1
1
1
1
1
1
1
1
1
1
1
1
1
1
1
1
1
1
1
1
1
1
1
1
1
1
1
1
1
1
1
1
1
1
1
1
1
1
1
1
1
1
1
1
1
1
1
1
1
1
1
1
1
1
1
1
1
1
1
1
1
1
1
1
1
1
1
1
1
1
1
1
1
1
1
1
1
1
1
1
1
1
1
1
1
1
1
1
1
1
1
1
1
1
1
1
1
1
1
1
1
1
1
1
1
1
1
1
1
1
1
1
1
1
1
1
1
1
1
1
1
1
1
1
1
1
1
1
1
1
1
1
1
1
1
1
1
1
1
1
1
1
1
1
1
1
1
1
1
1
1
1
1
1
1
1
1
1
1
1
1
1
1
1
1
1
1
1
1
1
1
1
1
1
1
1
1
1
1
1
1
1
1
1
1
1
1
1
1
1
1
1
1
1
1
1
1
1
1
1
1
1
1
1
1
1
1
1
1
1
1
1
1
1
1
1
1
1
1
1
1
1
1
1
1
1
1
1
1
1
1
1
1
1
1
1
1
1
1
1
1
1
1
1
1
1
1
1
1
1
1
1
1
1
1
1
1
1
1
1
1
1
1
1
1
1
1
1
1
1
1
1
1
1
1
1
1
1
1
1
1
1
1
1
1
1
1
1
1
1
1
1
1
1
1
1
1
1
1
1
1
1
1
1
1
1
1
1
1
1
1
1
1
1
1
1
1
1
1
1
1
1
1
1
1
1
1
1
1
1
1
1
1
1
1
1
1
1
1
1
1
1
1
1
1
1
1
1
1
1
1
1
1
1
1
1
1
1
1
1
1
1
1
1
1
1
1
1
1
1
1
1
1
1
1
1
1
1
1
1
1
1
1
1
1
1
1
1
1
1
1
1
1
1
1
1
1
1
1
1
1
1
1
1
1
1
1
1
1
1
1
1
1
1
1
1
1
1
1
1
1
1
1
1
1
1
1
1
1
1
1
1
1
1
1
1
1
1
1
1
1
1
1
1
1
1
1
1
1
1
1
1
1
1
1
1
1
1
1
1
1
1
1
1
1
1
1
1
1
1
1
1
1
1
1
1
1
1
1
1
1
1
1
1
1
1
1
1
1
1
1
1
1
1
1
1
1
1
1
1
1
1
1
1
1
1
1
1
1
1
1
1
1
1
1
1
1
1
1
1
1
1
1
1
1
1
1
1
1
1
1
1
1
1
1
1
1
1
1
1
1
1
1
1
1
1
1
1
1
1
1
1
1
1
1
1
1
1
1
1
1
1
1
1
1
1
1
1
1
1
1
1
1
1
1
1
1
1
1
1
1
1
1
1
1
1
1
1
1
1
1
1
1
1
1
1
1
1
1
1
1
1
1
1
1
1
1
1
1
1
1
1
1
1
1
1
1
1
1
1
1
1
1
1
1
1
1
1
1
1
1
1
1
1
1
1
1
1
1
1
1
1
1
1
1
1
1
1
1
1
1
1
1
1
1
1
1
1
1
1
1
1
1
1
1
1
1
1
1
1
1
1
1
1
1
1
1
1
1
1
1
1
1
1
1
1
1
1
1
1
1
1
1
1
1
1
1
1
1
1
1
1
1
1
1
1
1
1
1
1
1
1
1
1
1
1
1
1
1
1
1
1
1
1
1
1
1
1
1
1
1
1
1
1
1
1
1
1
1
1
1
1
1
1
1
1
1
1
1
1
1
1
1
1
1
1
1
1
1
1
1
1
1
1
1
1
1
1
1
1
1
1
1
1
1
1
1
1
1
1
1
1
1
1
1
1
1
1
1
1
1
1
1
1
1
1
1
1
1
1
1
1
1
1
1
1
1
1
1
1
1
1
1
1
1
1
1
1
1
1
1
1
1
1
1
1
1
1
1
1
1
1
1
1
1
1
1
1
1
1
1
1
1
1
1
1
1
1
1
1
1
1
1
1
1
1
1
1
1
1
1
1
1
1
1
1
1
1
1
1
1
1
1
1
1
1
1
1
1
1
1
1
1
1
1
1
1
1
1
1
1
1
1
1
1
1
1
1
1
1
1
1
1
1
1
1
1
1
1
1
1
1
1
1
1
1
1
1
1
1
1
1
1
1
1
1
1
1
1
1
1
1
1
1
1
1
1
1
1
1
1
1
1
1
1
1
1
1
1
1
1
1
1
1
1
1
1
1
1
1
1
1
1
1
1
1
1
1
1
1
1
1
1
1
1
1
1
1
1
1
1
1
1
1
1
1
1
1
1
1
1
1
1
1
1
1
1
1
1
1
1
1
1
1
1
1
1
1
1
1
1
1
1
1
1
1
1
1
1
1
1
1
1
1
1
1
1
1
1
1
1
1
1
1
1
1
1
1
1
1
1
1
1
1
1
1
1
1
1
1
1
1
1
1
1
1
1
1
1
1
1
1
1
1
1
1
1
1
1
1
1
1
1
1
1
1
1
1
1
1
1
1
1
1
1
1
1
1
1
1
1
1
1
1
1
1
1
1
1
1
1
1
1
1
1
1
1
1
1
1
1
1
1
1
1
1
1
1
1
1
1
1
1
1
1
1
1
1
1
1
1
1
1
1
1
1
1
1
1
1
1
1
1
1
1
1
1
1
1
1
1
1
1
1
1
1
1
1
1
1
1
1
1
1
1
1
1
1
1
1
1
1
1
1
1
1
1
1
1
1
1
1
1
1
1
1
1
1
1
1
1
1
1
1
1
1
1
1
1
1
1
1
1
1
1
1
1
1
1
1
1
1
1
1
1
1
1
1
1
1
1
1
1
1
1
1
1
1
1
1
1
1
1
1
1
1
1
1
1
1
1
1
1
1
1
1
1
1
1
1
1
1
1
1
1
1
1
1
1
1
1
1
1
1
1
1
1
1
1
1
1
1
1
1
1
1
1
1
1
1
1
1
1
1
1
1
1
1
1
1
1
1
1
1
1
1
1
1
1
1
1
1
1
1
1
1
1
1
1
1
1
1
1
1
1
1
1
1
1
1
1
1
1
1
1
1
1
1
1
1
1
1
1
1
1
1
1
1
1
1
1
1
1
1
1
1
1
1
1
1
1
1
1
1
1
1
1
1
1
1
1
1
1
1
1
1
1
1
1
1
1
1
1
1
1
1
1
1
1
1
1
1
1
1
1
1
1
1
1
1
1
1
1
1
1
1
1
1
1
1
1
1
1
1
1
1
1
1
1
1
1
1
1
1
1
1
1
1
1
1
1
1
1
1
1
1
1
1
1
1
1
1
1
1
1
1
1
1
1
1
1
1
1
1
1
1
1
1
1
1
1
1
1
1
1
1
1
1
1
1
1
1
1
1
1
1
1
1
1
1
1
1
1
1
1
1
1
1
1
1
1
1
1
1
1
1
1
1
1
1
1
1
1
1
1
1
1
1
1
1
1
1
1
1
1
1
1
1
1
1
1
1
1
1
1
1
1
1
1
1
1
1
1
1
1
1
1
1
1
1
1
1
1
1
1
1
1
1
1
1
1
1
1
1
1
1
1
1
1
1
1
1
1
1
1
1
1
1
1
1
1
1
1
1
1
1
1
1
1
1
1
1
1
1
1
1
1
1
1
1
1
1
1
1
1
1
1
1
1
1
1
1
1
1
1
1
1
1
1
1
1
1
1
1
1
1
1
1
1
1
1
1
1
1
1
1
1
1
1
1
1
1
1
1
1
1
1
1
1
1
1
1
1
1
1
1
1
1
1
1
1
1
1
1
1
1
1
1
1
1
1
1
1
1
1
1
1
1
1
1
1
1
1
1
1
1
1
1
1
1
1
1
1
1
1
1
1
1
1
1
1
1
1
1
1
1
1
1
1
1
1
1
1
1
1
1
1
1
1
1
1
1
1
1
1
1
1
1
1
1
1
1
1
1
1
1
1
1
1
1
1
1
1
1
1
1
1
1
1
1
1
1
1
1
1
1
1
1
1
1
1
1
1
1
1
1
1
1
1
1
1
1
1
1
1
1
1
1
1
1
1
1
1
1
1
1
1
1
1
1
1
1
1
1
1
1
1
1
1
1
1
1
1
1
1
1
1
1
1
1
1
1
1
1
1
1
1
1
1
1
1
1
1
1
1
1
1
1
1
1
1
1
1
1
1
1
1
1
1
1
1
1
1
1
1
1
1
1
1
1
1
1
1
1
1
1
1
1
1
1
1
1
1
1
1
1
1
1
1
1
1
1
1
1
1
1
1
1
1
1
1
1
1
1
1
1
1
1
1
1
1
1
1
1
1
1
1
1
1
1
1
1
1
1
1
1
1
1
1
1
1
1
1
1
1
1
1
1
1
1
1
1
1
1
1
1
1
1
1
1
1
1
1
1
1
1
1
1
1
1
1
1
1
1
1
1
1
1
1
1
1
1
1
1
1
1
1
1
1
1
1
1
1
1
1
1
1
1
1
1
1
1
1
1
1
1
1
1
1
1
1
1
1
1
1
1
1
1
1
1
1
1
1
1
1
1
1
1
1
1
1
1
1
1
1
1
1
1
1
1
1
1
1
1
1
1
1
1
1
1
1
1
1
1
1
1
1
1
1
1
1
1
1
1
1
1
1
1
1
1
1
1
1
1
1
1
1
1
1
1
1
1
1
1
1
1
1
1
1
1
1
1
1
1
1
1
1
1
1
1
1
1
1
1
1
1
1
1
1
1
1
1
1
1
1
1
1
1
1
1
1
1
1
1
1
1
1
1
1
1
1
1
1
1
1
1
1
1
1
1
1
1
1
1
1
1
1
1
1
1
1
1
1
1
1
1
1
1
1
1
1
1
1
1
1
1
1
1
1
1
1
1
1
1
1
1
1
1
1
1
1
1
1
1
1
1
1
1
1
1
1
1
1
1
1
1
1
1
1
1
1
1
1
1
1
1
1
1
1
1
1
1
1
1
1
1
1
1
1
1
1
1
1
1
1
1
1
1
1
1
1
1
1
1
1
1
1
1
1
1
1
1
1
1
1
1
1
1
1
1
1
1
1
1
1
1
1
1
1
1
1
1
1
1
1
1
1
1
1
1
1
1
1
1
1
1
1
1
1
1
1
1
1
1
1
1
1
1
1
1
1
1
1
1
1
1
1
1
1
1
1
1
1
1
1
1
1
1
1
1
1
1
1
1
1
1
1
1
1
1
1
1
1
1
1
1
1
1
1
1
1
1
1
1
1
1
1
1
1
1
1
1
1
1
1
1
1
1
1
1
1
1
1
1
1
1
1
1
1
1
1
1
1
1
1
1
1
1
1
1
1
1
1
1
1
1
1
1
1
1
1
1
1
1
1
1
1
1
1
1
1
1
1
1
1
1
1
1
1
1
1
1
1
1
1
1
1
1
1
1
1
1
1
1
1
1
1
1
1
1
1
1
1
1
1
1
1
1
1
1
1
1
1
1
1
1
1
1
1
1
1
1
1
1
1
1
1
1
1
1
1
1
1
1
1
1
1
1
1
1
1
1
1
1
1
1
1
1
1
1
1
1
1
1
1
1
1
1
1
1
1
1
1
1
1
1
1
1
1
1
1
1
1
1
1
1
1
1
1
1
1
1
1
1
1
1
1
1
1
1
1
1
1
1
1
1
1
1
1
1
1
1
1
1
1
1
1
1
1
1
1
1
1
1
1
1
1
1
1
1
1
1
1
1
1
1
1
1
1
1
1
1
1
1
1
1
1
1
1
1
1
1
1
1
1
1
1
1
1
1
1
1
1
1
1
1
1
1
1
1
1
1
1
1
1
1
1
1
1
1
1
1
1
1
1
1
1
1
1
1
1
1
1
1
1
1
1
1
1
1
1
1
1
1
1
1
1
1
1
1
1
1
1
1
1
1
1
1
1
1
1
1
1
1
1
1
1
1
1
1
1
1
1
1
1
1
1
POINT_DATA 24336 SCALARS flux_g1 double 
LOOKUP_TABLE   default 
1.057599
1.032387
1.003984
1.006091
1.044100
-0.000142
0.000296
0.000675
0.000674
0.000847
-0.000041
0.247010
0.244522
0.237292
0.233895
0.233764
0.238791
0.245186
0.908637
0.887526
0.861852
0.860156
0.888905
0.906232
0.462147
0.453971
0.438657
0.439835
0.456520
-0.000913
-0.000167
0.000935
0.000928
0.001377
0.323318
0.317496
0.308628
0.307905
0.314284
0.318809
0.309504
0.304405
0.295707
0.292993
0.298115
0.306777
0.398822
0.391727
0.382225
0.379749
0.387189
0.392356
0.876130
0.853824
0.835991
0.833893
0.856947
0.875398
0.695883
0.682091
0.665087
0.658745
0.671352
0.687664
0.658563
0.640461
0.626009
0.626132
0.647093
0.664739
0.000000
0.000000
0.000000
-0.000000
-0.000000
0.000000
0.289470
0.283047
0.278977
0.280658
0.286980
0.289066
0.447530
0.437572
0.428109
0.426460
0.439242
0.445893
-0.000000
0.000000
0.000000
-0.000000
-0.000000
-0.000000
0.173161
0.094054
0.000165
-0.060321
-0.021976
0.064343
-0.004406
-0.008490
-0.011521
-0.011430
-0.010524
-0.018889
0.641233
0.629727
0.611544
0.607368
0.618498
0.635656
0.707490
0.692087
0.675744
0.674846
0.689375
0.707205
-0.000000
0.000000
0.000000
-0.000000
-0.000000
0.000000
-0.000002
-0.000002
0.000000
0.000001
0.000001
0.000000
-0.000293
-0.000357
-0.000302
-0.000195
-0.000109
-0.000495
0.000438
0.001277
0.001834
0.001716
0.001560
0.003734
0.000059
0.000233
0.000064
-0.000034
-0.000027
-0.000024
1.073024
1.053402
1.024897
1.022434
1.044041
1.073308
0.226743
0.221922
0.216471
0.216621
0.222224
0.226823
0.022098
0.014950
-0.002599
-0.004179
-0.000706
0.016831
1.071153
1.040259
1.019440
1.037801
1.067303
0.855198
0.835702
0.815625
0.813265
0.833517
0.852148
1.413883
1.364553
1.345920
1.363488
1.413951
-0.000000
-0.000000
-0.000000
0.000000
0.000000
-0.000000
0.367678
0.355186
0.350975
0.353763
0.367694
0.371961
-0.000000
-0.000000
0.000000
0.000000
0.000000
-0.000000
0.000000
0.000000
-0.000000
-0.000000
-0.000000
0.000000
-0.000000
-0.000000
0.000000
0.000000
0.000000
-0.000000
0.047046
0.030685
0.009985
-0.022070
-0.014524
0.012805
-0.000160
-0.000126
-0.000013
0.000055
0.000038
-0.000030
1.134193
1.100489
1.084425
1.095501
1.131461
1.146634
0.022635
0.010830
-0.018154
-0.024679
-0.020262
-0.029887
0.325077
0.340171
0.255717
0.197446
0.162281
0.223926
0.000000
0.000000
-0.000000
-0.000000
0.000000
-0.000000
0.000000
0.000000
0.000000
0.000000
-0.000000
0.000000
1.017057
0.989317
0.970498
0.978198
1.004819
1.024342
-0.000000
-0.000000
-0.000000
0.000000
0.000000
0.000000
0.258494
0.322283
0.164925
-0.089253
-0.097413
-0.098334
0.459186
0.445936
0.439357
0.437240
0.451681
0.458407
0.315090
0.309564
0.301167
0.298713
0.303687
0.312390
0.124940
0.122105
0.115704
0.110570
0.114589
0.126207
0.000000
-0.000000
-0.000000
-0.000000
-0.000000
-0.000000
-0.000000
-0.000000
-0.000000
-0.000000
0.000000
-0.000000
-0.000000
0.962391
0.934637
0.923363
0.935710
0.959245
0.974845
-0.000000
-0.000000
0.000000
0.000000
0.000000
0.000000
0.000432
0.000536
0.000228
-0.000155
-0.000171
-0.000141
1.066636
1.037087
1.017361
1.024206
1.053316
1.073412
-0.000000
-0.000000
-0.000000
0.000000
0.000000
-0.000000
1.091012
1.059290
1.045233
1.057861
1.089775
1.104613
0.443990
0.437621
0.424136
0.419911
0.426063
0.439444
0.136519
0.138944
0.108635
0.054886
0.051240
0.094125
1.041535
1.005220
0.997080
1.016796
1.045057
1.056183
-0.000000
-0.000000
-0.000000
0.000000
0.000000
-0.000000
0.242274
0.237330
0.231956
0.231941
0.239090
0.243085
-0.006328
-0.006478
-0.004958
-0.002887
-0.003391
-0.007737
0.000685
0.000392
-0.000193
-0.000425
-0.000366
-0.000346
0.000000
0.000000
0.000000
-0.000000
-0.000000
0.000000
0.232473
0.227904
0.224068
0.221633
0.224023
0.238245
0.360487
0.353749
0.344031
0.341876
0.347590
0.353659
0.361355
1.083622
1.067308
1.038017
1.026662
1.036298
1.059468
1.084742
0.239057
0.231960
0.227247
0.227456
0.232204
0.239070
0.000000
0.000000
0.000000
0.000000
0.000000
0.000000
-0.000000
-0.000000
-0.000000
0.000000
0.000000
0.000000
0.000000
0.263070
0.257834
0.255453
0.257898
0.263559
0.265640
0.271566
0.266129
0.259754
0.257785
0.262952
0.267337
0.781269
0.763913
0.744984
0.744574
0.761202
0.780865
0.015536
0.006234
-0.009035
-0.015952
-0.012982
-0.015213
-0.039951
-0.059579
-0.046440
-0.027042
-0.015797
-0.054893
0.160012
0.156093
0.152844
0.152712
0.156623
0.159926
0.787787
0.777666
0.753904
0.745793
0.759257
0.778024
0.599951
0.685513
0.427814
0.093533
0.041945
0.189337
0.188136
0.183400
0.178922
0.179252
0.183692
0.187893
0.729765
0.715886
0.695837
0.690839
0.705398
0.724802
0.989570
0.881985
0.704107
0.638359
0.874185
0.968241
-0.000000
-0.000000
0.000000
0.000000
0.000000
0.727501
0.711442
0.693001
0.688744
0.702358
0.722830
0.004199
0.006149
0.002220
-0.001206
-0.001239
-0.000179
0.000000
0.000000
0.000000
-0.000000
-0.000000
0.000000
-0.000019
-0.000011
-0.000002
0.000001
-0.000011
-0.000015
1.053203
1.024401
1.004999
1.012735
1.040392
1.060414
0.856855
0.833900
0.813456
0.811968
0.827620
0.853489
-0.020303
-0.026546
-0.009922
0.005948
0.007051
0.005853
-0.000000
-0.000000
0.000000
0.000000
0.000000
-0.000000
0.242115
0.238908
0.179853
0.120965
0.132267
0.200833
0.721699
0.697946
0.685121
0.691421
0.715569
0.503632
0.493379
0.477403
0.482880
0.500601
0.000001
0.000000
-0.000000
-0.000000
-0.000000
0.000000
0.000000
0.000000
0.000000
-0.000000
-0.000000
-0.000000
0.389563
0.379576
0.372585
0.371139
0.378793
0.388757
0.000001
0.000002
0.000001
-0.000000
-0.000000
0.000000
0.000003
0.000003
0.000001
-0.000000
-0.000000
0.000002
0.853179
0.831441
0.817946
0.826394
0.848858
0.863476
-0.000000
-0.000000
0.000000
0.000000
0.000000
0.000000
0.770321
0.757431
0.735610
0.728200
0.732209
0.754312
0.769465
0.000000
0.000000
-0.000000
-0.000000
0.000000
1.240011
1.214978
1.195830
1.207493
1.242426
1.261226
0.203090
0.126060
0.010066
-0.051694
-0.008469
0.093871
0.000000
0.000000
-0.000000
-0.000000
-0.000000
0.000000
0.126925
0.121252
0.121184
0.124025
0.127012
0.000000
0.000000
0.000000
-0.000000
-0.000000
0.000000
1.400230
1.412460
1.352274
1.255630
1.610352
0.477959
0.471719
0.459427
0.450908
0.453934
0.467821
0.356711
0.351092
0.340963
0.337824
0.343079
0.353494
-0.011981
-0.016522
-0.018653
-0.017340
-0.012728
-0.032711
1.302208
1.291325
1.247658
1.247837
1.282603
1.308531
-0.014558
-0.014728
-0.009256
-0.003940
-0.006296
-0.015424
0.276677
0.273757
0.264859
0.261958
0.266916
0.274038
0.655030
0.637427
0.625612
0.622369
0.637399
0.652163
0.000001
0.000001
-0.000000
-0.000000
-0.000000
-0.000001
0.932083
0.906024
0.887374
0.890377
0.916390
0.936708
0.640147
0.629580
0.611372
0.605568
0.616944
0.636562
-0.000000
-0.000000
0.000000
0.000000
0.000000
-0.000000
1.316597
1.287589
1.251375
1.254823
1.291928
-0.000574
-0.000810
-0.000226
0.000274
0.000253
0.000210
0.000000
-0.000000
-0.000000
-0.000000
0.000000
0.000000
0.000000
0.000000
-0.000000
-0.000000
0.000000
0.951191
0.922098
0.901657
0.900662
0.920839
0.948518
0.000000
0.000000
-0.000000
-0.000000
0.000000
-0.000000
1.282340
1.247869
1.214892
1.217332
1.241973
1.281832
1.065865
1.032458
1.011504
1.015623
1.047309
1.069755
0.690068
0.676835
0.657436
0.653064
0.664949
0.682021
0.160147
0.156491
0.152978
0.152841
0.156401
0.159985
0.000739
0.000904
0.000639
0.000395
0.000266
0.000691
0.003863
0.004487
0.004460
0.007140
0.002513
0.000000
0.000000
-0.000000
-0.000000
0.000000
-0.000000
-0.000000
-0.000000
-0.000000
0.000000
0.000000
-0.000000
0.009593
0.002826
-0.006290
-0.005411
-0.005113
0.120559
0.118354
0.115052
0.113552
0.116437
0.122902
0.000000
0.000000
0.000000
-0.000000
-0.000000
0.000000
0.000000
0.000000
-0.000000
-0.000000
-0.000000
0.000000
-0.000000
-0.000000
-0.000000
-0.000000
-0.000000
-0.000000
0.860297
0.850861
0.830203
0.837992
0.857092
0.876611
0.598564
0.577793
0.569614
0.580484
0.595793
-0.000042
-0.000006
0.000034
0.000047
0.000043
0.000009
-0.000000
-0.000000
-0.000000
-0.000000
0.000000
-0.000000
-0.000000
0.000000
0.000000
-0.000000
-0.000000
-0.000000
0.254514
0.248986
0.242927
0.241597
0.246716
0.251719
-0.000030
-0.000053
-0.000009
0.000025
0.000023
0.000032
0.456558
0.439891
0.434952
0.440114
0.452814
0.459563
1.412525
1.467550
1.083439
0.670901
0.352771
0.898877
-0.048084
-0.042391
-0.023294
-0.002384
-0.010312
-0.053717
1.365715
1.348789
1.305731
1.293220
1.313734
1.343070
-0.000000
-0.000000
-0.000000
0.000000
0.000000
0.000000
-0.000000
0.414365
0.405537
0.394642
0.393343
0.402126
0.413180
1.048137
1.017780
1.004414
1.016578
1.046309
1.061078
0.000063
0.000028
-0.000019
-0.000021
0.000053
0.737073
0.732849
0.707687
0.697371
0.705189
0.723820
0.749542
0.738950
0.714857
0.707754
0.720480
0.742109
0.000000
0.000000
-0.000000
-0.000000
0.000000
0.166639
0.162099
0.148994
0.142636
0.147785
0.167441
0.542116
0.527996
0.522583
0.529742
0.545598
0.551920
0.463163
0.455331
0.441177
0.440179
0.449353
0.462455
0.002297
0.002366
0.001398
0.000348
0.000344
0.002570
-0.000018
-0.000017
-0.000005
0.000006
0.000005
-0.000005
0.561237
0.552109
0.536704
0.530532
0.538729
0.553783
-0.004091
-0.002332
0.000155
0.001096
0.000295
-0.001076
0.712109
0.698750
0.682311
0.674226
0.686526
0.703565
-0.000000
-0.000000
0.000000
0.000000
0.000000
0.000000
0.466823
0.458348
0.447621
0.445913
0.459209
0.465868
0.171813
0.174445
0.135658
0.096198
0.089804
0.143757
0.000001
-0.000003
0.000001
0.000002
0.000001
0.000004
1.413921
1.369260
1.345240
1.356275
1.413831
-0.000000
-0.000000
-0.000000
0.000000
0.000000
0.000000
0.321228
0.316169
0.307078
0.304398
0.309465
0.317949
0.171224
0.117737
0.068494
0.060792
0.118763
0.156502
-0.000000
-0.000000
-0.000000
0.000000
0.000000
-0.000000
0.000000
0.000000
0.000000
-0.000000
-0.000000
0.000000
0.000000
0.000000
0.000000
0.000000
0.000000
-0.000000
-0.000000
-0.000000
0.000000
0.000000
0.000000
-0.000000
-0.000000
0.000000
0.000000
0.000000
0.000000
0.000000
0.000000
-0.000000
-0.000000
0.000000
0.144098
0.134815
0.092915
0.067723
0.077904
0.127234
0.936444
0.919886
0.895561
0.893360
0.920280
0.935387
0.560769
0.551299
0.536925
0.533393
0.547307
0.558169
1.458792
0.670670
-0.177721
0.137085
1.158734
0.205649
0.201068
0.195723
0.196205
0.200705
0.205624
0.000000
0.000000
-0.000000
-0.000000
-0.000000
-0.000000
-0.000000
-0.000000
0.000000
0.000000
-0.000000
0.000000
-0.000003
-0.000004
-0.000002
-0.000004
-0.000005
0.895355
0.875680
0.852914
0.851341
0.873463
0.893275
0.508509
0.499926
0.486230
0.480995
0.488807
0.503241
0.000000
-0.000000
-0.000000
0.000000
0.000000
0.000000
0.000000
0.000032
0.000069
-0.000349
-0.000508
-0.000356
-0.000962
0.000000
0.000000
-0.000000
-0.000000
-0.000000
0.000000
-0.000004
-0.000004
-0.000001
0.000001
0.000001
-0.000003
0.567870
0.556898
0.541851
0.537738
0.548073
0.564362
0.410256
0.364203
0.317089
0.308564
0.402414
0.401467
0.000000
0.000000
0.000000
-0.000000
-0.000000
0.000000
-0.000000
-0.000000
0.000000
0.000000
0.000000
0.000000
0.963147
0.934858
0.923023
0.934444
0.962392
0.975055
1.362395
1.344977
1.306881
1.288089
1.304576
1.344188
1.031067
0.999130
0.982918
1.006311
1.033318
0.755484
0.737267
0.716004
0.712428
0.732505
0.752630
0.400024
0.391670
0.381699
0.379382
0.387419
0.398976
-0.000004
-0.000000
0.000002
0.000003
0.000002
0.000009
0.000438
0.000511
0.000411
0.000734
0.000391
0.000000
0.000000
-0.000000
-0.000000
-0.000000
-0.000000
0.000000
0.000000
0.000000
-0.000000
-0.000000
-0.000000
1.200643
1.184544
1.146226
1.135695
1.151809
1.186590
-0.000000
-0.000000
0.000000
0.000000
0.000000
0.000000
0.000000
0.000000
-0.000000
-0.000000
-0.000000
0.000000
0.688730
0.667627
0.657634
0.660016
0.681201
0.695743
0.000000
0.000000
0.000000
-0.000000
-0.000000
-0.000000
-0.000000
-0.000000
-0.000000
0.000000
0.000000
-0.000000
0.800498
0.781433
0.776548
0.783405
0.795272
0.801183
0.801540
0.000000
0.000000