# vtk DataFile Version 3.0 
Date: 3/9/2016   Time: 10:18
ASCII 
DATASET UNSTRUCTURED_GRID 
 
POINTS 6022 float 
0.859118 0.555137 0.000000 
0.877604 0.553708 0.000000 
0.888913 0.571328 0.000000 
0.879393 0.588149 0.000000 
0.861705 0.589065 0.000000 
0.850258 0.572911 0.000000 
0.352958 0.770832 0.000000 
0.375015 0.762617 0.000000 
0.387978 0.785271 0.000000 
0.369330 0.799878 0.000000 
0.351629 0.790433 0.000000 
0.848772 0.155125 0.000000 
0.861614 0.137034 0.000000 
0.876928 0.137762 0.000000 
0.887681 0.157715 0.000000 
0.876210 0.173898 0.000000 
0.859874 0.173493 0.000000 
0.292069 0.463160 0.000000 
0.314525 0.460369 0.000000 
0.324056 0.477915 0.000000 
0.309020 0.494784 0.000000 
0.290562 0.487814 0.000000 
0.787572 0.369535 0.000000 
0.798060 0.365808 0.000000 
0.818103 0.378990 0.000000 
0.817783 0.396164 0.000000 
0.796963 0.403880 0.000000 
0.781251 0.390122 0.000000 
0.582813 0.940413 0.000000 
0.605184 0.944334 0.000000 
0.610234 0.965342 0.000000 
0.590952 0.975523 0.000000 
0.573258 0.964126 0.000000 
0.059614 0.911841 0.000000 
0.077291 0.917238 0.000000 
0.078623 0.940574 0.000000 
0.059025 0.947654 0.000000 
0.043430 0.932111 0.000000 
0.651199 0.869030 0.000000 
0.661954 0.855023 0.000000 
0.684447 0.857818 0.000000 
0.690298 0.874956 0.000000 
0.679501 0.889584 0.000000 
0.656629 0.884770 0.000000 
0.000000 0.405667 0.000000 
0.025945 0.405555 0.000000 
0.034862 0.420903 0.000000 
0.026374 0.437317 0.000000 
0.000000 0.437489 0.000000 
0.642907 0.745789 0.000000 
0.653118 0.730404 0.000000 
0.672795 0.730854 0.000000 
0.681204 0.741006 0.000000 
0.672689 0.764285 0.000000 
0.651533 0.763564 0.000000 
0.867315 0.916496 0.000000 
0.884246 0.904767 0.000000 
0.901784 0.913858 0.000000 
0.899753 0.936491 0.000000 
0.884332 0.944141 0.000000 
0.868446 0.935527 0.000000 
0.472126 0.380954 0.000000 
0.487548 0.371193 0.000000 
0.505863 0.380578 0.000000 
0.507823 0.394519 0.000000 
0.490654 0.411332 0.000000 
0.472166 0.402118 0.000000 
0.652913 0.129974 0.000000 
0.662655 0.117559 0.000000 
0.679766 0.117685 0.000000 
0.689987 0.134398 0.000000 
0.676550 0.154540 0.000000 
0.659937 0.151267 0.000000 
0.611916 0.489043 0.000000 
0.629539 0.482482 0.000000 
0.637038 0.486265 0.000000 
0.643999 0.510900 0.000000 
0.638038 0.519587 0.000000 
0.617166 0.521639 0.000000 
0.607246 0.507986 0.000000 
0.234879 0.314684 0.000000 
0.249643 0.306885 0.000000 
0.267829 0.317831 0.000000 
0.265908 0.337793 0.000000 
0.249741 0.345642 0.000000 
0.233017 0.334687 0.000000 
0.774343 0.815365 0.000000 
0.793015 0.814117 0.000000 
0.803523 0.827533 0.000000 
0.796765 0.847282 0.000000 
0.775825 0.849363 0.000000 
0.765226 0.837770 0.000000 
0.300991 0.146833 0.000000 
0.316866 0.136999 0.000000 
0.334787 0.147433 0.000000 
0.334429 0.166365 0.000000 
0.317957 0.175875 0.000000 
0.300611 0.165640 0.000000 
0.904825 0.192806 0.000000 
0.915130 0.176553 0.000000 
0.934901 0.176922 0.000000 
0.943697 0.192277 0.000000 
0.934412 0.210386 0.000000 
0.914807 0.210214 0.000000 
0.361850 0.505832 0.000000 
0.377335 0.499360 0.000000 
0.394659 0.515629 0.000000 
0.389467 0.533697 0.000000 
0.369409 0.538784 0.000000 
0.359567 0.529216 0.000000 
0.539477 0.092555 0.000000 
0.556343 0.083248 0.000000 
0.572402 0.092613 0.000000 
0.571950 0.113827 0.000000 
0.557988 0.122636 0.000000 
0.539004 0.112197 0.000000 
0.317605 0.233770 0.000000 
0.334061 0.224585 0.000000 
0.351071 0.234699 0.000000 
0.350537 0.254496 0.000000 
0.334271 0.263458 0.000000 
0.316783 0.253112 0.000000 
0.265644 0.602141 0.000000 
0.284382 0.594568 0.000000 
0.300379 0.609320 0.000000 
0.296069 0.626582 0.000000 
0.279100 0.633192 0.000000 
0.262189 0.618087 0.000000 
0.557988 0.122636 0.000000 
0.571950 0.113827 0.000000 
0.592755 0.123283 0.000000 
0.592280 0.142743 0.000000 
0.575168 0.152640 0.000000 
0.557246 0.141278 0.000000 
0.088328 0.595953 0.000000 
0.097361 0.581602 0.000000 
0.118898 0.582702 0.000000 
0.126716 0.601575 0.000000 
0.118390 0.614915 0.000000 
0.095703 0.613733 0.000000 
0.156625 0.884974 0.000000 
0.172295 0.876043 0.000000 
0.189474 0.884070 0.000000 
0.189604 0.905610 0.000000 
0.173137 0.914641 0.000000 
0.158445 0.907144 0.000000 
0.089717 0.468585 0.000000 
0.096506 0.455028 0.000000 
0.119022 0.452456 0.000000 
0.129242 0.470807 0.000000 
0.122257 0.485102 0.000000 
0.098688 0.486375 0.000000 
0.333696 0.322490 0.000000 
0.349973 0.313770 0.000000 
0.366909 0.323635 0.000000 
0.366514 0.343871 0.000000 
0.349431 0.353052 0.000000 
0.332667 0.342426 0.000000 
0.796713 0.725430 0.000000 
0.815829 0.724159 0.000000 
0.827034 0.740378 0.000000 
0.817941 0.758573 0.000000 
0.799513 0.759851 0.000000 
0.787833 0.744413 0.000000 
0.483892 0.949976 0.000000 
0.499451 0.938856 0.000000 
0.515410 0.944761 0.000000 
0.518231 0.965753 0.000000 
0.499928 0.975969 0.000000 
0.483488 0.965997 0.000000 
0.834945 0.607795 0.000000 
0.852416 0.606802 0.000000 
0.863200 0.622697 0.000000 
0.848916 0.643316 0.000000 
0.825900 0.633323 0.000000 
0.964914 0.472056 0.000000 
0.973315 0.456992 0.000000 
1.000000 0.456917 0.000000 
1.000000 0.489155 0.000000 
0.973662 0.489288 0.000000 
0.387407 0.412693 0.000000 
0.402385 0.394283 0.000000 
0.425027 0.406414 0.000000 
0.421935 0.425872 0.000000 
0.403837 0.431235 0.000000 
0.215628 0.176472 0.000000 
0.235898 0.166467 0.000000 
0.249911 0.174802 0.000000 
0.250176 0.193045 0.000000 
0.230765 0.204326 0.000000 
0.214035 0.188972 0.000000 
0.530880 0.461492 0.000000 
0.548432 0.452987 0.000000 
0.561339 0.459874 0.000000 
0.564089 0.483960 0.000000 
0.544908 0.492785 0.000000 
0.529024 0.480188 0.000000 
0.434529 0.437087 0.000000 
0.455202 0.430694 0.000000 
0.468495 0.442330 0.000000 
0.460200 0.464976 0.000000 
0.442663 0.468518 0.000000 
0.431239 0.456938 0.000000 
0.823802 0.825369 0.000000 
0.832022 0.809485 0.000000 
0.850375 0.807941 0.000000 
0.861694 0.823167 0.000000 
0.852733 0.843232 0.000000 
0.835876 0.845045 0.000000 
0.302756 0.698665 0.000000 
0.314673 0.697412 0.000000 
0.328523 0.710828 0.000000 
0.325616 0.728732 0.000000 
0.307018 0.737015 0.000000 
0.291008 0.727164 0.000000 
0.289349 0.717438 0.000000 
0.832242 0.574375 0.000000 
0.850258 0.572911 0.000000 
0.861705 0.589065 0.000000 
0.852416 0.606802 0.000000 
0.834945 0.607795 0.000000 
0.823578 0.595762 0.000000 
0.572402 0.092613 0.000000 
0.590188 0.083732 0.000000 
0.602444 0.090907 0.000000 
0.604199 0.115078 0.000000 
0.592755 0.123283 0.000000 
0.571950 0.113827 0.000000 
0.747571 0.101681 0.000000 
0.766191 0.101259 0.000000 
0.776236 0.119195 0.000000 
0.766273 0.135829 0.000000 
0.746746 0.135601 0.000000 
0.737333 0.119315 0.000000 
0.379268 0.571353 0.000000 
0.398491 0.565645 0.000000 
0.412665 0.580099 0.000000 
0.407842 0.598097 0.000000 
0.389064 0.603480 0.000000 
0.374814 0.589412 0.000000 
0.000000 0.437489 0.000000 
0.026374 0.437317 0.000000 
0.035065 0.453557 0.000000 
0.027366 0.468813 0.000000 
0.000000 0.469085 0.000000 
0.195968 0.540461 0.000000 
0.219100 0.530728 0.000000 
0.234462 0.547155 0.000000 
0.232997 0.557842 0.000000 
0.213745 0.569140 0.000000 
0.193091 0.552733 0.000000 
0.488631 0.000000 0.000000 
0.522841 0.000000 0.000000 
0.522806 0.024259 0.000000 
0.505758 0.034264 0.000000 
0.488586 0.024071 0.000000 
0.000000 0.531064 0.000000 
0.027947 0.531148 0.000000 
0.035480 0.546864 0.000000 
0.027578 0.562225 0.000000 
0.000000 0.562061 0.000000 
0.563043 0.587414 0.000000 
0.583752 0.585114 0.000000 
0.593844 0.604380 0.000000 
0.577255 0.620891 0.000000 
0.557930 0.610942 0.000000 
0.314525 0.460369 0.000000 
0.322129 0.444705 0.000000 
0.340142 0.442307 0.000000 
0.351548 0.468940 0.000000 
0.341611 0.480751 0.000000 
0.324056 0.477915 0.000000 
0.707701 0.168065 0.000000 
0.716492 0.152458 0.000000 
0.736997 0.152633 0.000000 
0.746472 0.169606 0.000000 
0.737041 0.185513 0.000000 
0.716431 0.186236 0.000000 
0.844339 0.704832 0.000000 
0.853256 0.688667 0.000000 
0.874230 0.687917 0.000000 
0.883818 0.705291 0.000000 
0.875160 0.721311 0.000000 
0.855039 0.722250 0.000000 
0.000000 0.782504 0.000000 
0.027368 0.783211 0.000000 
0.034735 0.797681 0.000000 
0.025872 0.814438 0.000000 
0.000000 0.813955 0.000000 
0.367445 0.264381 0.000000 
0.384141 0.255218 0.000000 
0.400577 0.264763 0.000000 
0.400516 0.284942 0.000000 
0.383777 0.294210 0.000000 
0.367011 0.284552 0.000000 
0.451001 0.502333 0.000000 
0.470964 0.495979 0.000000 
0.485031 0.510676 0.000000 
0.481370 0.527404 0.000000 
0.460764 0.533598 0.000000 
0.446856 0.519056 0.000000 
0.056412 0.213162 0.000000 
0.065626 0.197358 0.000000 
0.087515 0.198024 0.000000 
0.095259 0.213967 0.000000 
0.084875 0.231121 0.000000 
0.065464 0.230532 0.000000 
0.087759 0.165023 0.000000 
0.096259 0.150210 0.000000 
0.116702 0.149409 0.000000 
0.127285 0.168181 0.000000 
0.119173 0.182630 0.000000 
0.096325 0.182524 0.000000 
0.064222 0.813849 0.000000 
0.086261 0.815572 0.000000 
0.092624 0.830708 0.000000 
0.082266 0.847863 0.000000 
0.062069 0.845445 0.000000 
0.054522 0.830744 0.000000 
0.863993 0.064813 0.000000 
0.877173 0.059597 0.000000 
0.890761 0.066429 0.000000 
0.895080 0.086263 0.000000 
0.878764 0.100641 0.000000 
0.864816 0.098505 0.000000 
0.857335 0.087153 0.000000 
0.965234 0.160161 0.000000 
0.974056 0.144871 0.000000 
1.000000 0.145094 0.000000 
1.000000 0.176448 0.000000 
0.973555 0.176336 0.000000 
0.343686 0.972693 0.000000 
0.356524 0.964869 0.000000 
0.374318 0.972940 0.000000 
0.374195 1.000000 0.000000 
0.343630 1.000000 0.000000 
0.369409 0.538784 0.000000 
0.389467 0.533697 0.000000 
0.403166 0.547985 0.000000 
0.398491 0.565645 0.000000 
0.379268 0.571353 0.000000 
0.365652 0.557848 0.000000 
0.580460 0.552861 0.000000 
0.586788 0.540839 0.000000 
0.609819 0.538458 0.000000 
0.619888 0.555529 0.000000 
0.611820 0.570605 0.000000 
0.590850 0.572141 0.000000 
0.787339 0.942974 0.000000 
0.800364 0.934790 0.000000 
0.819339 0.944520 0.000000 
0.818737 0.965473 0.000000 
0.804551 0.973591 0.000000 
[...]
CELL_DATA 1024
FIELD FieldData 1
material 1 1024 int
1
1
1
1
1
1
1
1
1
1
1
1
1
1
1
1
1
1
1
1
1
1
1
1
1
1
1
1
1
1
1
1
1
1
1
1
1
1
1
1
1
1
1
1
1
1
1
1
1
1
1
1
1
1
1
1
1
1
1
1
1
1
1
1
1
1
1
1
1
1
1
1
1
1
1
1
1
1
1
1
1
1
1
1
1
1
1
1
1
1
1
1
1
1
1
1
1
1
1
1
1
1
1
1
1
1
1
1
1
1
1
1
1
1
1
1
1
1
1
1
1
1
1
1
1
1
1
1
1
1
1
1
1
1
1
1
1
1
1
1
1
1
1
1
1
1
1
1
1
1
1
1
1
1
1
1
1
1
1
1
1
1
1
1
1
1
1
1
1
1
1
1
1
1
1
1
1
1
1
1
1
1
1
1
1
1
1
1
1
1
1
1
1
1
1
1
1
1
1
1
1
1
1
1
1
1
1
1
1
1
1
1
1
1
1
1
1
1
1
1
1
1
1
1
1
1
1
1
1
1
1
1
1
1
1
1
1
1
1
1
1
1
1
1
1
1
1
1
1
1
1
1
1
1
1
1
1
1
1
1
1
1
1
1
1
1
1
1
1
1
1
1
1
1
1
1
1
1
1
1
1
1
1
1
1
1
1
1
1
1
1
1
1
1
1
1
1
1
1
1
1
1
1
1
1
1
1
1
1
1
1
1
1
1
1
1
1
1
1
1
1
1
1
1
1
1
1
1
1
1
1
1
1
1
1
1
1
1
1
1
1
1
1
1
1
1
1
1
1
1
1
1
1
1
1
1
1
1
1
1
1
1
1
1
1
1
1
1
1
1
1
1
1
1
1
1
1
1
1
1
1
1
1
1
1
1
1
1
1
1
1
1
1
1
1
1
1
1
1
1
1
1
1
1
1
1
1
1
1
1
1
1
1
1
1
1
1
1
1
1
1
1
1
1
1
1
1
1
1
1
1
1
1
1
1
1
1
1
1
1
1
1
1
1
1
1
1
1
1
1
1
1
1
1
1
1
1
1
1
1
1
1
1
1
1
1
1
1
1
1
1
1
1
1
1
1
1
1
1
1
1
1
1
1
1
1
1
1
1
1
1
1
1
1
1
1
1
1
1
1
1
1
1
1
1
1
1
1
1
1
1
1
1
1
1
1
1
1
1
1
1
1
1
1
1
1
1
1
1
1
1
1
1
1
1
1
1
1
1
1
1
1
1
1
1
1
1
1
1
1
1
1
1
1
1
1
1
1
1
1
1
1
1
1
1
1
1
1
1
1
1
1
1
1
1
1
1
1
1
1
1
1
1
1
1
1
1
1
1
1
1
1
1
1
1
1
1
1
1
1
1
1
1
1
1
1
1
1
1
1
1
1
1
1
1
1
1
1
1
1
1
1
1
1
1
1
1
1
1
1
1
1
1
1
1
1
1
1
1
1
1
1
1
1
1
1
1
1
1
1
1
1
1
1
1
1
1
1
1
1
1
1
1
1
1
1
1
1
1
1
1
1
1
1
1
1
1
1
1
1
1
1
1
1
1
1
1
1
1
1
1
1
1
1
1
1
1
1
1
1
1
1
1
1
1
1
1
1
1
1
1
1
1
1
1
1
1
1
1
1
1
1
1
1
1
1
1
1
1
1
1
1
1
1
1
1
1
1
1
1
1
1
1
1
1
1
1
1
1
1
1
1
1
1
1
1
1
1
1
1
1
1
1
1
1
1
1
1
1
1
1
1
1
1
1
1
1
1
1
1
1
1
1
1
1
1
1
1
1
1
1
1
1
1
1
1
1
1
1
1
1
1
1
1
1
1
1
1
1
1
1
1
1
1
1
1
1
1
1
1
1
1
1
1
1
1
1
1
1
1
1
1
1
1
1
1
1
1
1
1
1
1
1
1
1
1
1
1
1
1
1
1
1
1
1
1
1
1
1
1
1
1
1
1
1
1
1
1
1
1
1
1
1
1
1
1
1
1
1
1
1
1
1
1
1
1
1
1
1
1
1
1
1
1
1
1
1
1
1
1
1
1
1
1
1
1
1
1
1
1
1
1
1
1
1
1
1
1
1
1
1
1
1
1
1
1
1
1
1
1
1
1
1
1
1
1
1
1
1
1
1
1
1
1
1
1
1
1
1
1
1
1
1
1
1
1
1
1
1
1
1
1
1
1
1
1
1
1
1
1
1
1
1
1
1
1
1
1
1
1
1
1
1
1
1
1
1
1
1
1
1
1
1
1
1
1
1
1
1
1
1
1
1
1
1
1
1
1
1
1
1
1
1
1
1
1
1
1
1
1
1
1
1
1
POINT_DATA 6022 SCALARS flux_g1 double 
LOOKUP_TABLE   default 
-0.000000
-0.000000
0.000000
0.000000
0.000000
-0.000000
0.002696
0.001866
-0.000383
-0.000316
0.002035
0.056270
0.062469
0.037992
0.001293
-0.003042
0.010388
0.613364
0.575668
0.560410
0.584943
0.615683
0.001043
0.000854
0.000097
-0.000283
-0.000079
0.000797
-0.000000
0.000000
0.000000
-0.000000
0.000000
1.308097
0.692077
0.057151
0.383764
1.288639
0.000000
-0.000000
0.000000
0.000000
0.000000
0.000000
1.412806
1.313232
1.280123
1.310895
1.412957
0.000000
0.000000
-0.000000
-0.000000
-0.000000
-0.000000
-0.000000
-0.000000
-0.000000
0.000000
0.000000
-0.000000
0.363599
0.348206
0.335218
0.337625
0.354627
0.363069
0.219128
0.213014
0.202877
0.196577
0.203986
0.214482
-0.005705
-0.003255
-0.000850
0.002598
0.002664
0.003017
-0.001683
0.722474
0.692686
0.658178
0.661187
0.692876
0.725990
-0.000000
-0.000000
0.000000
0.000000
0.000000
-0.000000
0.598119
0.571636
0.543580
0.543593
0.570137
0.598466
-0.004572
-0.006138
-0.002597
0.000203
0.000926
-0.000164
0.497629
0.479046
0.469306
0.482522
0.504094
0.505820
0.302602
0.288405
0.275709
0.275819
0.287212
0.302840
0.570374
0.544257
0.518899
0.519190
0.544210
0.571450
0.652517
0.623426
0.613421
0.630719
0.653592
0.660109
0.287035
0.275774
0.260106
0.260168
0.273401
0.287458
1.098660
1.069754
1.007105
0.984540
1.007738
1.074603
-0.045665
-0.041210
-0.020511
0.006102
0.001938
-0.046491
1.094353
1.072245
1.006704
0.977554
0.996480
1.065558
0.544727
0.520038
0.495927
0.496012
0.521092
0.546091
-0.000000
-0.000000
0.000000
0.000000
0.000000
-0.000000
0.000000
0.000000
0.000000
-0.000000
-0.000000
0.000000
-0.000000
0.000000
0.000000
-0.000000
0.000000
-0.000000
-0.000000
-0.000000
-0.000000
-0.000000
0.467866
0.448256
0.419514
0.421947
0.445622
0.762863
0.720488
0.692883
0.691454
0.731392
0.766641
0.181632
0.139668
0.068925
-0.019182
0.010420
0.114689
0.404404
0.386608
0.382031
0.397400
0.412760
0.412311
0.000000
0.000000
0.000000
-0.000000
-0.000000
-0.000000
0.271296
0.171138
0.008283
-0.058421
-0.030859
0.095727
0.213742
-0.000000
-0.000000
-0.000000
0.000000
0.000000
-0.000000
0.275455
0.261843
0.253027
0.251566
0.260031
0.275635
0.165346
0.158647
0.157524
0.163067
0.168831
0.170929
0.521514
0.431252
0.264238
0.183827
0.280325
0.480474
1.412747
1.311632
1.279387
1.307209
1.412875
0.806709
0.756180
0.723825
0.725803
0.767724
0.813929
0.349577
0.317545
0.317424
0.333246
0.350030
1.412635
1.305762
1.277884
1.306433
1.412881
0.001215
0.000522
-0.000242
-0.000186
0.000344
0.575375
0.562614
0.535162
0.518569
0.533258
0.560357
0.188357
0.182123
0.175611
0.174714
0.180133
0.189152
-0.000000
-0.000000
-0.000000
0.000000
0.000000
0.000000
1.412733
1.307918
1.280611
1.312833
1.413034
0.494688
0.471692
0.450434
0.450085
0.472368
0.495033
0.415554
0.338151
0.199785
0.135322
0.217477
0.378089
1.203579
1.171313
1.101609
1.077126
1.108831
1.171953
1.100439
1.073120
1.013417
0.983013
1.005371
1.072861
1.175362
1.100918
1.085337
1.121194
1.167031
1.209247
0.127767
0.119427
0.104226
0.084075
0.090026
0.112042
0.124668
-0.000888
-0.001303
0.000254
0.000920
0.001225
0.000000
0.000000
0.000000
-0.000000
0.000000
0.504988
0.482025
0.460070
0.457237
0.508497
0.513508
0.001406
0.001878
0.001122
0.000351
0.000180
0.000868
0.000000
0.000000
0.000000
-0.000000
-0.000000
0.000000
0.158324
0.151795
0.142728
0.146668
0.153309
-0.000000
0.000000
0.000000
-0.000000
-0.000000
0.000000
0.000000
0.000000
0.000000
-0.000000
-0.000000
0.000000
1.412648
1.309211
1.279776
1.307602
1.412915
-0.004292
-0.005151
-0.005080
-0.004199
-0.003724
-0.007230
1.412726
1.309014
1.280594
1.311485
1.413022
1.309530
1.278123
1.201485
1.171517
1.199853
1.277831
0.185728
0.179855
0.171349
0.169042
0.174769
0.181536
0.298196
0.284068
0.272699
0.266391
0.280268
0.304791
0.318986
0.304807
0.275959
0.250153
0.266737
0.324978
0.349906
0.333360
0.317784
0.317665
0.333530
0.349983
1.216358
1.180518
1.116196
1.092371
1.128279
1.188857
0.722447
0.679810
0.649338
0.650646
0.691732
0.726032
0.000875
0.000344
-0.000067
-0.000065
-0.000561
0.000441
0.000014
-0.000170
-0.000197
0.000268
0.828767
0.596246
0.244996
-0.109045
-0.024609
0.492977
1.206698
1.174688
1.104093
1.081408
1.115193
1.180379
0.000000
0.000000
-0.000000
-0.000000
-0.000000
-0.000000
0.472821
0.450104
0.428774
0.427413
0.449870
0.472379
0.914551
0.863155
0.836880
0.844206
0.898122
0.930982
0.202917
0.196576
0.186585
0.180661
0.186084
0.196429
0.000000
0.000000
-0.000000
-0.000000
-0.000000
0.000000
-0.000094
-0.000024
0.000032
0.000023
0.000041
0.659440
0.629689
0.588512
0.585846
0.632732
0.670780
-0.000036
-0.000091
-0.000008
0.000034
0.000024
0.000052
0.409320
0.389468
0.372546
0.371823
0.390522
0.408876
0.000102
0.000241
-0.000034
-0.000193
-0.000173
-0.000337
-0.002336
-0.000910
0.000869
0.001183
0.001051
0.000435
0.000000
0.000000
0.000000
-0.000000
-0.000000
-0.000000
0.939663
0.899064
0.845653
0.856261
0.914307
0.000001
-0.000000
-0.000000
-0.000000
-0.000196
-0.000058
0.000047
0.000026
0.000041
0.081729
0.041500
0.018243
0.041202
0.060827
0.000010
0.000010
0.000005
-0.000002
-0.000002
0.000017
0.000000
0.000000
0.000000
-0.000000
-0.000000
-0.000000
0.693208
0.591712
0.307219
0.257371
0.642028
0.003084
0.002448
0.000583
-0.000652
-0.000593
0.001794
0.000000
0.000000
0.000000
-0.000000
-0.000000
0.000010
0.000014
0.000005
-0.000002
-0.000003
0.000002
0.195957
0.187141
0.180910
0.186510
0.196596
0.201413
0.000000
0.000000
0.000000
-0.000000
0.000000
0.000012
0.000009
0.000001
-0.000002
-0.000002
0.000002
0.160291
0.146261
0.145410
0.153331
0.161006
-0.000000
-0.000000
0.000000
0.000000
0.000000
-0.000000
1.412815
1.312204
1.283014
1.316378
1.413157
1.178014
1.129342
1.091233
1.117660
1.178469
1.217259
0.479654
0.452595
0.437432
0.442661
0.469891
0.491174
-0.000052
-0.000064
-0.000118
-0.000082
-0.000043
-0.000118
-0.000273
-0.012665
-0.009111
-0.001301
0.001417
-0.000468
-0.007382
0.075137
0.058088
0.043439
0.016933
0.017875
0.046715
0.852897
0.807682
0.780682
0.784775
0.836179
0.862647
0.233998
0.219142
0.214533
0.223897
0.239111
0.571982
0.545178
0.518766
0.518486
0.544246
0.571964
1.194516
1.165877
1.092853
1.068232
1.093659
1.167748
0.000000
0.000000
0.000000
-0.000000
-0.000000
-0.000000
-0.000000
-0.000001
-0.000000
0.000000
0.000000
0.000000
0.598311
0.570601
0.543897
0.544180
0.570728
0.599170
0.835042
0.801081
0.775229
0.795907
0.807309
0.844630
-0.016358
-0.009971
-0.000809
0.004183
0.002243
-0.007271
1.193765
1.168343
1.094641
1.066718
1.088637
1.165577
-0.000000
-0.000000
-0.000000
0.000000
0.000000
-0.000000
-0.025985
-0.018909
-0.002984
0.006081
0.004887
-0.006250
0.000020
0.000017
0.000007
0.000000
0.000001
0.000034
-0.008586
-0.003940
0.002042
0.002866
0.003086
0.004387
0.000263
0.001811
0.001287
0.000666
0.004406
0.283053
0.116207
-0.021327
-0.075225
-0.081361
-0.031909
1.311653
1.279827
1.203847
1.172661
1.202677
1.278619
-0.038961
-0.028648
-0.003030
0.008326
0.007453
-0.009744
0.573873
0.547686
0.539821
0.552213
0.575483
0.582642
1.172938
1.108732
1.078822
1.107341
1.171821
1.203371
-0.000000
-0.000000
-0.000000
0.000000
0.000000
-0.000000
1.319627
1.283411
1.209598
1.181378
1.216972
1.279739
1.108447
1.083525
1.002547
0.987600
1.018203
1.077769
1.308204
1.278911
1.207745
1.176542
1.217222
1.282067
0.000010
0.000014
0.000011
0.000004
0.000002
0.000013
0.558303
0.463595
0.283861
0.192855
0.293063
0.520907
0.000000
0.000000
0.000000
0.000000
-0.000000
0.000000
0.419059
0.403794
0.381311
0.384079
0.405362
0.421780
0.000000
-0.000000
-0.000000
-0.000000
-0.000000
-0.000000
0.000000
0.000000
0.000000
-0.000000
0.000000
0.000006
0.000016
0.000004
-0.000004
-0.000004
-0.000005
-0.000178
-0.000172
-0.000127
-0.000008
0.000013
-0.000160
0.000000
0.000000
0.000000
-0.000000
-0.000000
-0.000000
0.000003
0.000002
-0.000000
-0.000000
-0.000000
-0.000002
0.699301
0.661294
0.631538
0.631181
0.658710
0.698811
0.916747
0.895503
0.852187
0.815902
0.818957
0.847732
0.901731
0.820916
0.771304
0.737093
0.738835
0.776184
0.819967
-0.000000
-0.000000
-0.000000
0.000000
0.000000
0.000000
1.412563
1.308421
1.282961
1.302243
1.413073
0.000000
-0.000010
0.000007
0.000014
0.000011
0.000028
0.303076
0.291837
0.279224
0.280175
0.294795
0.302489
0.000005
0.000002
-0.000002
-0.000003
-0.000002
0.000002
0.386191
0.367906
0.350341
0.350342
0.368441
0.386314
0.003059
0.002625
0.000645
-0.000774
-0.000413
0.003472
0.158350
0.153692
0.147464
0.146365
0.152208
0.157839
0.000007
0.000004
0.000000
-0.000001
-0.000001
-0.000000
0.288266
0.274316
0.262460
0.261793
0.275560
0.288236
0.000000
0.000000
0.000000
-0.000000
-0.000000
-0.000000
-0.000000
-0.000000
0.000000
0.000000
0.000000
-0.000000
0.686953
0.645934
0.624798
0.627131
0.667586
0.690628
0.002784
-0.008190
-0.015911
-0.015149
-0.016933
-0.020942
-0.000126
-0.000145
-0.000099
-0.000022
-0.000005
-0.000073
0.885819
0.899805
0.724353
0.517734
0.285366
0.360943
0.775561
-0.000003
-0.000002
0.000000
0.000001
0.000001
-0.000003
-0.000000
-0.000000
-0.000000
0.000000
0.000000
0.000000
0.000000
0.000000
0.000000
-0.000000
-0.000000
0.000000
0.000804
-0.005439
-0.012491
-0.008606
-0.011774
-0.025070
-0.000000
-0.000000
0.000000
0.000000
-0.000000
-0.000000
-0.000000
0.000000
0.000000
0.000000
-0.000000
-0.000000
-0.000000
0.000000
0.000000
-0.000000
0.484369
0.396525
0.244307
0.169818
0.260801
0.445398
-0.000017
-0.000035
0.000008
0.000018
0.000015
0.000033
0.649461
0.609077
0.578726
0.582223
0.616015
0.651461
-0.000000
0.000001
-0.000001
-0.000001
-0.000000
-0.000002
1.116204
1.082316
1.037993
1.000513
1.021539
1.080588
1.343331
1.285103
1.220108
0.867468
0.640330
0.812752
1.360070
0.219936
0.214621
0.201472
0.196592
0.202751
0.213019
0.000000
0.000000
0.000000
-0.000000
0.000000
1.077181
1.018748
0.981728
0.960674
0.996283
1.057714
0.001394
0.002236
0.001062
-0.000221
-0.000241
-0.000008
0.273160
0.260199
0.247110
0.249748
0.261387
0.273776
0.000000
0.000000
-0.000000
-0.000000
-0.000000
0.000000
0.000000
0.000000
0.000000
0.000000
0.000000
0.603175
0.574799
0.551512
0.549520
0.579590
0.607397
1.127572
1.089429
1.028387
1.010696
1.051265
1.090531
1.302836
1.282085
1.218417
1.180523
1.219995
1.284475
1.300065
-0.000084
-0.000139
-0.000111
-0.000049
-0.000008
-0.000041
-0.000184
0.000000
0.000000
0.000000
-0.000000
-0.000000
0.000000
0.001609
0.001037
-0.000092
-0.000347
-0.000364
-0.000351
0.426968
0.406345
0.387946
0.387612
0.407930
0.426923
0.434758
0.414921
0.410962
0.423076
0.442580
0.443969
1.090239
1.032300
0.998413
1.036828
1.082674
1.118334
1.308879
1.277786
1.203953
1.172880
1.206670
1.278763
0.996113
0.959558
0.912154
0.892463
0.924121
0.969198
-0.000000
-0.000000
-0.000000
0.000000
0.000000
0.000000
0.000000
0.760587
0.726446
0.693102
0.696266
0.732265
0.764886
0.658061
0.630253
0.598721
0.600239
0.627428
0.660843
1.412660
1.307928
1.277992
1.304929
1.412830
0.126097
0.079968
0.014854
0.023832
0.106431
0.261377
0.249837
0.237335
0.237762
0.249882
0.263254
0.286816
0.261930
0.198232
0.128166
0.144148
0.252510
-0.010721
-0.008356
-0.003008
-0.000245
-0.002867
-0.011511
0.044310
0.051402
0.025331
-0.006488
-0.010459
-0.002956
0.001693
-0.010008
-0.018185
-0.015450
-0.019093
-0.026478
0.002491
0.001700
0.000388
-0.000481
-0.000506
0.000875
0.771033
0.724223
0.720333
0.763298
0.795281
-0.000000
-0.000000
-0.000000
0.000000
0.000000
-0.000000
-0.000275
-0.000163
-0.000018
0.000046
0.000035
-0.000221
1.309424
1.277911
1.200938
1.172315
1.202842
1.277703
0.001160
0.002012
0.000982
0.000550
0.004047
0.000907
0.000301
-0.000249
-0.000196
-0.000194
-0.001930
-0.000474
0.001182
0.001226
0.001059
-0.000471
0.824970
0.779907
0.751039
0.755390
0.807361
0.840444
0.385594
0.350149
0.350015
0.367469
0.386095
1.150158
1.043644
1.042665
1.097843
1.153320
-0.000000
-0.000000
0.000000
0.000000
0.000000
-0.000000
0.518219
0.493802
0.470134
0.469859
0.493438
0.518255
0.703321
0.671196
0.621024
0.613979
0.675621
0.714655
0.997912
0.967702
0.929626
0.937650
0.967004
0.990479
1.098345
1.067405
1.005073
0.986921
1.010616
1.064508
-0.000000
0.000000
0.000000
0.000000
0.000000
0.000000
0.000122
0.000000
-0.000101
0.000007
-0.000007
-0.000423
0.000017
0.000017
0.000010
-0.000000
0.000010
-0.000000
-0.000000
0.000000
0.000000
0.000000
0.000000
0.000000
0.000000
-0.000000
-0.000000
-0.000000
0.285099
0.192718
0.032272
-0.043970
0.008690
0.193178
-0.047615
-0.040444
-0.018813
0.009917
0.006011
-0.059220
0.214893
0.208845
0.194911
0.192949
0.204820
0.220648
-0.000000
-0.000000
-0.000000
0.000000
0.000000
0.000659
0.000867
-0.003340
-0.006889
-0.007127
-0.009907
0.000463
0.001363
0.001775
-0.000096
0.000228
0.005570
-0.000000
-0.000000
-0.000000
0.000000
-0.000000
0.543040
0.518214
0.493499
0.493397
0.517843
0.543337
0.050885
0.045557
0.019090
-0.003275
-0.005132
0.004886
0.039857
-0.006239
-0.006267
-0.005296
-0.004865
-0.008852
-0.005124
0.000006
0.000009
0.000009
0.000006
0.000005
0.000020
0.490783
0.339557
0.096372
-0.057706
-0.019743
0.220885
1.412673
1.307145
1.279033
1.308300
1.412935
0.723767
0.696614
0.658673
0.661202
0.689509
0.727075
0.087251
0.064087
0.010431
-0.024517
-0.016268
0.022757
1.116456
1.102293
0.844504
0.542018
0.591428
1.030618
0.000000
0.000000
0.000000
0.000000
0.000000
0.000000
0.001020
0.000463
0.000077
-0.000153
-0.000009
0.000679
0.468944
0.445730
0.441084
0.452427
0.469630
0.477606
-0.000000
0.000000
-0.000000
-0.000000
-0.000000
-0.000000
1.412733
1.311089
1.279364
1.309130
1.412954
0.000277
0.000089
-0.000188
-0.000075
-0.000098
-0.000580
0.333531
0.317555
0.302255
0.302513
0.318554
0.333860
0.599902
0.572311
0.544452
0.544224
0.571511
0.599850
0.195333
0.176999
0.177042
0.186324
0.194890
0.131256
0.120634
0.122548
0.127884
0.131519
0.000000
0.000000
0.000000
-0.000000
-0.000000
0.000000
-0.000169
-0.000140
-0.000043
0.000039
0.000041
-0.000144
0.106729
0.094180
0.054100
0.041896
0.050590
0.083274
1.115832
1.080807
1.024600
1.002267
1.042690
1.091809
0.000000
0.000000
-0.000000
-0.000000
-0.000000
0.000445
0.000563
0.000515
0.000449
0.000861
0.000504
0.317463
0.302401
0.288553
0.288363
0.302773
0.317521
-0.000017
-0.000013
0.000011
0.000014
0.000011
0.000037
-0.022649
-0.025483
-0.017950
-0.003574
-0.011600
-0.046607
0.000283
0.001130
0.001058
0.000603
0.001057
0.002841
-0.000001
-0.000002
-0.000000
0.000001
0.000001
0.000001
0.001343
0.000848
-0.000084
-0.000254
-0.000283
-0.000331
0.145967
0.132037
0.131871
0.138273
0.145319
0.857903
0.815756
0.770606
0.779301
0.825170
0.425915
0.405693
0.386597
0.386468
0.406328
0.425994
-0.000002
-0.000001
0.000001
0.000001
0.000001
-0.000001
0.000012
0.000006
-0.000002
-0.000005
-0.000004
0.000008
0.000128
0.000568
0.000357
-0.000117
-0.000226
-0.000239
-0.000272
0.212234
0.203326
0.200705
0.208053
0.212257
0.215670
1.179756
1.127964
1.090811
1.128189
1.178440
1.220608
0.689040
0.661233
0.627600
0.629846
0.658002
0.692256
1.311835
1.279338
1.201187
1.175724
1.206050
1.281726
0.000001
0.000000
-0.000000
-0.000000
-0.000000
0.000000
1.322979
1.285154
1.216808
1.189729
1.224520
1.284139
0.288180
0.273997
0.261445
0.263214
0.275906
0.288977
1.024166
0.987515
0.939082
0.918453
0.957634
1.001725
0.000000
0.000000
0.000000
-0.000000
-0.000000
0.000000
0.002412
-0.004384
-0.010721
-0.010441
-0.013706
-0.012898
-0.000981
-0.000221
0.000916
0.000923
0.000930
0.001140
-0.019521
-0.022496
-0.018168
-0.008471
-0.013511
-0.040407
-0.001401
-0.002164
-0.000456
0.001093
0.001264
0.001536
-0.000000
-0.000000
-0.000000
0.000000
0.000000
0.000000
0.990142
0.935408
0.909948
0.935906
0.986248
1.016516
0.533467
0.518408
0.491151
0.472194
0.476920
0.499024
0.523493
0.122039
0.115225
0.104641
0.096514
0.105980
0.121896
0.922896
0.872352
0.868826
0.920095
0.960248
-0.000225
-0.000378
0.000313
0.000892
0.000908
0.001293
-0.030238
-0.039075
-0.037468
-0.002818
-0.012664
-0.094188
0.137654
0.141982
0.107094
0.055327
0.046990
0.085990
0.001177
0.000648
-0.000150
-0.000404
-0.000366
0.000629
-0.000253
-0.000196
-0.000013
0.000064
0.000034
-0.000253
-0.000000
-0.000000
-0.000000
0.000000
0.000000
0.000000
0.855307
0.774455
0.774614
0.812200
0.854618
1.412569
1.302264
1.276646
1.307222
1.412894
-0.000003
-0.000001
0.000000
0.000001
0.000001
-0.000002
0.367399
0.349989
0.333533
0.333308
0.350122
0.367365
0.997240
0.976478
0.915137
0.886815
0.919430
0.970994
1.022205
0.999711
0.949577
0.915456
0.930379
0.987560
1.006410
0.987252
0.931310
0.898792
0.914178
0.976607
0.880182
0.844138
0.810703
0.792088
0.804813
0.861461
-0.000000
0.000000
-0.000000
-0.000000
-0.000000
-0.000000
-0.020390
-0.023881
-0.016670
-0.007636
-0.014563
-0.043917
0.000000
0.000000
0.000000
-0.000000
-0.000000
-0.000000
-0.000000
-0.000000
0.000000
0.000000
0.000000
-0.000000
0.709325
0.669330
0.643312
0.645555
0.687382
0.712001
0.187163
0.183916
0.170225
0.166208
0.171677
0.180868
-0.000000
0.000000
0.000000
-0.000000
-0.000000
0.000000
0.550957
0.522264
0.498538
0.499239
0.533357
0.549294
0.000000
0.000000
0.000000
-0.000000
-0.000000
-0.000000
-0.000005
0.000000
0.000011
0.000005
0.000002
0.000033
1.030121
1.006160
0.967520
0.890292
0.894628
1.098505
-0.000000
-0.000000
-0.000000
0.000000
0.000000
0.323154
0.307734
0.293843
0.292659
0.304405
0.321824
0.000013
0.000018
0.000006
-0.000003
-0.000003
0.000003
0.445091
0.421791
0.407165
0.411868
0.435092
0.452485
0.769995
0.738035
0.703179
0.707924
0.750630
0.779522
0.000001
0.000001
-0.000001
-0.000002
-0.000002
-0.000002
0.642455
0.607758
0.579830
0.584947
0.624292
0.645585
0.318312
0.302595
0.288552
0.289089
0.304403
0.318748
0.276746
0.264499
0.253475
0.260361
0.266624
0.278380
-0.000000
-0.000000
-0.000000
0.000000
0.000000
0.000172
0.000019
-0.000154
-0.000025
-0.000040
-0.000529
0.623932
0.585430
0.563354
0.575171
0.613553
0.627163
0.540953
0.515285
0.493237
0.491644
0.542196
0.549487
0.000004
0.000008
0.000000
-0.000002
-0.000002
-0.000004
0.493109
0.469926
0.447558
0.447340
0.469885
0.493176
0.612399
0.585309
0.574969
0.590643
0.614288
0.620561
0.203422
0.191529
0.168646