# vtk DataFile Version 3.0 
Date: 3/9/2016   Time: 10:18
ASCII 
DATASET UNSTRUCTURED_GRID 
 
POINTS 82 float 
0.265006 0.539883 0.000000 
0.484488 0.535088 0.000000 
0.518115 0.569640 0.000000 
0.500469 0.749572 0.000000 
0.328866 0.836613 0.000000 
0.234672 0.742060 0.000000 
0.600137 0.000000 0.000000 
0.785344 0.000000 0.000000 
0.811643 0.241470 0.000000 
0.726027 0.305776 0.000000 
0.600796 0.270959 0.000000 
0.407025 0.000000 0.000000 
0.600137 0.000000 0.000000 
0.600796 0.270959 0.000000 
0.504618 0.311062 0.000000 
0.395635 0.256144 0.000000 
0.000000 0.261721 0.000000 
0.192656 0.243026 0.000000 
0.258708 0.291506 0.000000 
0.232869 0.504093 0.000000 
0.000000 0.502885 0.000000 
0.000000 0.777419 0.000000 
0.234672 0.742060 0.000000 
0.328866 0.836613 0.000000 
0.320938 1.000000 0.000000 
0.000000 1.000000 0.000000 
0.000000 0.000000 0.000000 
0.206929 0.000000 0.000000 
0.192656 0.243026 0.000000 
0.000000 0.261721 0.000000 
0.785344 0.000000 0.000000 
1.000000 0.000000 0.000000 
1.000000 0.261975 0.000000 
0.811643 0.241470 0.000000 
0.258708 0.291506 0.000000 
0.395635 0.256144 0.000000 
0.504618 0.311062 0.000000 
0.484488 0.535088 0.000000 
0.265006 0.539883 0.000000 
0.232869 0.504093 0.000000 
0.726027 0.305776 0.000000 
0.811643 0.241470 0.000000 
1.000000 0.261975 0.000000 
1.000000 0.498667 0.000000 
0.768333 0.505769 0.000000 
0.518115 0.569640 0.000000 
0.731146 0.554471 0.000000 
0.782561 0.745591 0.000000 
0.666164 0.867919 0.000000 
0.500469 0.749572 0.000000 
0.328866 0.836613 0.000000 
0.500469 0.749572 0.000000 
0.666164 0.867919 0.000000 
0.670810 1.000000 0.000000 
0.320938 1.000000 0.000000 
0.731146 0.554471 0.000000 
0.768333 0.505769 0.000000 
1.000000 0.498667 0.000000 
1.000000 0.778681 0.000000 
0.782561 0.745591 0.000000 
0.666164 0.867919 0.000000 
0.782561 0.745591 0.000000 
1.000000 0.778681 0.000000 
1.000000 1.000000 0.000000 
0.670810 1.000000 0.000000 
0.206929 0.000000 0.000000 
0.407025 0.000000 0.000000 
0.395635 0.256144 0.000000 
0.258708 0.291506 0.000000 
0.192656 0.243026 0.000000 
0.000000 0.502885 0.000000 
0.232869 0.504093 0.000000 
0.265006 0.539883 0.000000 
0.234672 0.742060 0.000000 
0.000000 0.777419 0.000000 
0.504618 0.311062 0.000000 
0.600796 0.270959 0.000000 
0.726027 0.305776 0.000000 
0.768333 0.505769 0.000000 
0.731146 0.554471 0.000000 
0.518115 0.569640 0.000000 
0.484488 0.535088 0.000000 
CELLS 16 98 
 6 0 1 2 3 4 5  
 5 6 7 8 9 10  
 5 11 12 13 14 15  
 5 16 17 18 19 20  
 5 21 22 23 24 25  
 4 26 27 28 29  
 4 30 31 32 33  
 6 34 35 36 37 38 39  
 5 40 41 42 43 44  
 5 45 46 47 48 49  
 5 50 51 52 53 54  
 5 55 56 57 58 59  
 5 60 61 62 63 64  
 5 65 66 67 68 69  
 5 70 71 72 73 74  
 7 75 76 77 78 79 80 81  
 
CELL_TYPES 16
7
7
7
7
7
7
7
7
7
7
7
7
7
7
7
7
CELL_DATA 16
FIELD FieldData 1
material 1 16 int
1
1
1
1
1
1
1
1
1
1
1
1
1
1
1
1
POINT_DATA 82 SCALARS flux_g1 double 
LOOKUP_TABLE   default 
0.647298
0.172418
0.125792
-0.110077
-0.012364
0.489952
0.258003
0.144484
0.070942
0.087600
0.242910
0.426297
0.260018
0.239983
0.325651
0.462604
1.359419
0.807840
0.692154
0.719317
1.342870
1.484680
0.431046
0.050816
-0.296890
0.464487
1.361476
0.779677
0.807135
1.364117
0.136560
0.045340
-0.007279
0.054450
0.677445
0.458571
0.331648
0.212809
0.649494
0.718851
0.075501
0.041650
-0.003598
-0.021278
-0.047551
0.039173
-0.020885
-0.020683
-0.008365
-0.095502
-0.067356
-0.049574
-0.008989
0.034532
-0.099621
-0.027647
-0.024610
-0.006187
0.007768
-0.005421
0.005668
0.003917
0.002897
-0.002944
0.011516
0.743938
0.443204
0.460115
0.663103
0.807623
1.356197
0.726136
0.672044
0.535339
1.434032
0.327644
0.213581
0.090013
-0.038040
-0.062811
0.042701
0.200289
 
