# vtk DataFile Version 3.0 
Date: 3/9/2016   Time: 10:18
ASCII 
DATASET UNSTRUCTURED_GRID 
 
POINTS 355 float 
0.650310 0.369943 0.000000 
0.743548 0.322659 0.000000 
0.798409 0.375924 0.000000 
0.755644 0.470602 0.000000 
0.669350 0.450466 0.000000 
0.615911 0.506337 0.000000 
0.669350 0.450466 0.000000 
0.755644 0.470602 0.000000 
0.775707 0.507059 0.000000 
0.738388 0.587470 0.000000 
0.637658 0.580728 0.000000 
0.909098 0.440774 0.000000 
1.000000 0.439374 0.000000 
1.000000 0.581918 0.000000 
0.897444 0.579247 0.000000 
0.864312 0.516710 0.000000 
0.357279 0.250936 0.000000 
0.406351 0.222458 0.000000 
0.479811 0.259466 0.000000 
0.477245 0.348130 0.000000 
0.403010 0.380548 0.000000 
0.347363 0.333996 0.000000 
0.773176 0.892848 0.000000 
0.874328 0.887472 0.000000 
0.894295 1.000000 0.000000 
0.752491 1.000000 0.000000 
0.000000 0.870327 0.000000 
0.091084 0.864385 0.000000 
0.139229 0.912727 0.000000 
0.132405 1.000000 0.000000 
0.000000 1.000000 0.000000 
0.603143 0.257171 0.000000 
0.667690 0.218757 0.000000 
0.746251 0.262549 0.000000 
0.743548 0.322659 0.000000 
0.650310 0.369943 0.000000 
0.610842 0.348219 0.000000 
0.417571 0.733609 0.000000 
0.490581 0.738458 0.000000 
0.514991 0.768469 0.000000 
0.499066 0.861970 0.000000 
0.406569 0.882293 0.000000 
0.372600 0.858034 0.000000 
0.363406 0.809422 0.000000 
0.930519 0.150271 0.000000 
1.000000 0.147447 0.000000 
1.000000 0.301894 0.000000 
0.900400 0.296540 0.000000 
0.871357 0.244426 0.000000 
0.775707 0.507059 0.000000 
0.864312 0.516710 0.000000 
0.897444 0.579247 0.000000 
0.859882 0.643617 0.000000 
0.766865 0.641194 0.000000 
0.738388 0.587470 0.000000 
0.495877 0.505151 0.000000 
0.532292 0.481455 0.000000 
0.615911 0.506337 0.000000 
0.637658 0.580728 0.000000 
0.605251 0.629744 0.000000 
0.526268 0.635756 0.000000 
0.481031 0.588321 0.000000 
0.253243 0.580870 0.000000 
0.348114 0.562951 0.000000 
0.389622 0.611653 0.000000 
0.375366 0.668405 0.000000 
0.272279 0.696074 0.000000 
0.235042 0.650245 0.000000 
0.264530 0.143499 0.000000 
0.353906 0.101882 0.000000 
0.410209 0.138345 0.000000 
0.406351 0.222458 0.000000 
0.357279 0.250936 0.000000 
0.273190 0.210912 0.000000 
0.139229 0.912727 0.000000 
0.227432 0.875537 0.000000 
0.276003 0.911283 0.000000 
0.281073 1.000000 0.000000 
0.132405 1.000000 0.000000 
0.479811 0.259466 0.000000 
0.539648 0.226352 0.000000 
0.603143 0.257171 0.000000 
0.610842 0.348219 0.000000 
0.533907 0.382460 0.000000 
0.477245 0.348130 0.000000 
0.637940 0.878228 0.000000 
0.652005 0.858520 0.000000 
0.738755 0.851009 0.000000 
0.773176 0.892848 0.000000 
0.752491 1.000000 0.000000 
0.659789 1.000000 0.000000 
0.000000 0.119017 0.000000 
0.110765 0.109700 0.000000 
0.139955 0.139020 0.000000 
0.123724 0.229662 0.000000 
0.000000 0.228033 0.000000 
0.229562 0.000000 0.000000 
0.351996 0.000000 0.000000 
0.353906 0.101882 0.000000 
0.264530 0.143499 0.000000 
0.232179 0.120963 0.000000 
0.746251 0.262549 0.000000 
0.798157 0.225408 0.000000 
0.871357 0.244426 0.000000 
0.900400 0.296540 0.000000 
0.858756 0.370659 0.000000 
0.798409 0.375924 0.000000 
0.743548 0.322659 0.000000 
0.879805 0.000000 0.000000 
1.000000 0.000000 0.000000 
1.000000 0.147447 0.000000 
0.930519 0.150271 0.000000 
0.869762 0.096170 0.000000 
0.139955 0.139020 0.000000 
0.232179 0.120963 0.000000 
0.264530 0.143499 0.000000 
0.273190 0.210912 0.000000 
0.215782 0.268555 0.000000 
0.145438 0.261063 0.000000 
0.123724 0.229662 0.000000 
0.798409 0.375924 0.000000 
0.858756 0.370659 0.000000 
0.909098 0.440774 0.000000 
0.864312 0.516710 0.000000 
0.775707 0.507059 0.000000 
0.755644 0.470602 0.000000 
0.389622 0.611653 0.000000 
0.481031 0.588321 0.000000 
0.526268 0.635756 0.000000 
0.490581 0.738458 0.000000 
0.417571 0.733609 0.000000 
0.375366 0.668405 0.000000 
0.215782 0.268555 0.000000 
0.273190 0.210912 0.000000 
0.357279 0.250936 0.000000 
0.347363 0.333996 0.000000 
0.259648 0.361314 0.000000 
0.533962 0.895707 0.000000 
0.637940 0.878228 0.000000 
0.659789 1.000000 0.000000 
0.525314 1.000000 0.000000 
0.258307 0.443800 0.000000 
0.362088 0.478917 0.000000 
0.348114 0.562951 0.000000 
0.253243 0.580870 0.000000 
0.215411 0.527440 0.000000 
0.616780 0.765780 0.000000 
0.647615 0.717372 0.000000 
0.732860 0.713334 0.000000 
0.769867 0.771332 0.000000 
0.738755 0.851009 0.000000 
0.652005 0.858520 0.000000 
0.000000 0.000000 0.000000 
0.119461 0.000000 0.000000 
0.110765 0.109700 0.000000 
0.000000 0.119017 0.000000 
0.788149 0.129879 0.000000 
0.869762 0.096170 0.000000 
0.930519 0.150271 0.000000 
0.871357 0.244426 0.000000 
0.798157 0.225408 0.000000 
0.668934 0.138720 0.000000 
0.741837 0.103217 0.000000 
0.788149 0.129879 0.000000 
0.798157 0.225408 0.000000 
0.746251 0.262549 0.000000 
0.667690 0.218757 0.000000 
0.406569 0.882293 0.000000 
0.499066 0.861970 0.000000 
0.533962 0.895707 0.000000 
0.525314 1.000000 0.000000 
0.410180 1.000000 0.000000 
0.859882 0.643617 0.000000 
0.897444 0.579247 0.000000 
1.000000 0.581918 0.000000 
1.000000 0.716790 0.000000 
0.894278 0.717601 0.000000 
0.480872 0.000000 0.000000 
0.609924 0.000000 0.000000 
0.609577 0.102935 0.000000 
0.538063 0.137944 0.000000 
0.480790 0.104840 0.000000 
0.000000 0.729221 0.000000 
0.115474 0.736771 0.000000 
0.130645 0.764938 0.000000 
0.091084 0.864385 0.000000 
0.000000 0.870327 0.000000 
0.272279 0.696074 0.000000 
0.375366 0.668405 0.000000 
0.417571 0.733609 0.000000 
0.363406 0.809422 0.000000 
0.265455 0.761261 0.000000 
0.862735 0.767962 0.000000 
0.894278 0.717601 0.000000 
1.000000 0.716790 0.000000 
1.000000 0.855110 0.000000 
0.897262 0.857359 0.000000 
0.362088 0.478917 0.000000 
0.392175 0.457871 0.000000 
0.495877 0.505151 0.000000 
0.481031 0.588321 0.000000 
0.389622 0.611653 0.000000 
0.348114 0.562951 0.000000 
0.130645 0.764938 0.000000 
0.225566 0.793044 0.000000 
0.227432 0.875537 0.000000 
0.139229 0.912727 0.000000 
0.091084 0.864385 0.000000 
0.533907 0.382460 0.000000 
0.610842 0.348219 0.000000 
0.650310 0.369943 0.000000 
0.669350 0.450466 0.000000 
0.615911 0.506337 0.000000 
0.532292 0.481455 0.000000 
0.000000 0.475231 0.000000 
0.105179 0.474934 0.000000 
0.138698 0.526177 0.000000 
0.103125 0.603168 0.000000 
0.000000 0.606161 0.000000 
0.138698 0.526177 0.000000 
0.215411 0.527440 0.000000 
0.253243 0.580870 0.000000 
0.235042 0.650245 0.000000 
0.143200 0.663737 0.000000 
0.103125 0.603168 0.000000 
0.000000 0.606161 0.000000 
0.103125 0.603168 0.000000 
0.143200 0.663737 0.000000 
0.115474 0.736771 0.000000 
0.000000 0.729221 0.000000 
0.000000 0.346638 0.000000 
0.107203 0.350447 0.000000 
0.136154 0.398084 0.000000 
0.105179 0.474934 0.000000 
0.000000 0.475231 0.000000 
0.769867 0.771332 0.000000 
0.862735 0.767962 0.000000 
0.897262 0.857359 0.000000 
0.874328 0.887472 0.000000 
0.773176 0.892848 0.000000 
0.738755 0.851009 0.000000 
0.526268 0.635756 0.000000 
0.605251 0.629744 0.000000 
0.647615 0.717372 0.000000 
0.616780 0.765780 0.000000 
0.514991 0.768469 0.000000 
0.490581 0.738458 0.000000 
0.514991 0.768469 0.000000 
0.616780 0.765780 0.000000 
0.652005 0.858520 0.000000 
0.637940 0.878228 0.000000 
0.533962 0.895707 0.000000 
0.499066 0.861970 0.000000 
0.410209 0.138345 0.000000 
0.480790 0.104840 0.000000 
0.538063 0.137944 0.000000 
0.539648 0.226352 0.000000 
0.479811 0.259466 0.000000 
0.406351 0.222458 0.000000 
0.119461 0.000000 0.000000 
0.229562 0.000000 0.000000 
0.232179 0.120963 0.000000 
0.139955 0.139020 0.000000 
0.110765 0.109700 0.000000 
0.605251 0.629744 0.000000 
0.637658 0.580728 0.000000 
0.738388 0.587470 0.000000 
0.766865 0.641194 0.000000 
0.732860 0.713334 0.000000 
0.647615 0.717372 0.000000 
0.766865 0.641194 0.000000 
0.859882 0.643617 0.000000 
0.894278 0.717601 0.000000 
0.862735 0.767962 0.000000 
0.769867 0.771332 0.000000 
0.732860 0.713334 0.000000 
0.738035 0.000000 0.000000 
0.879805 0.000000 0.000000 
0.869762 0.096170 0.000000 
0.788149 0.129879 0.000000 
0.741837 0.103217 0.000000 
0.403010 0.380548 0.000000 
0.477245 0.348130 0.000000 
0.533907 0.382460 0.000000 
0.532292 0.481455 0.000000 
0.495877 0.505151 0.000000 
0.392175 0.457871 0.000000 
0.000000 0.228033 0.000000 
0.123724 0.229662 0.000000 
0.145438 0.261063 0.000000 
0.107203 0.350447 0.000000 
0.000000 0.346638 0.000000 
0.225566 0.793044 0.000000 
0.265455 0.761261 0.000000 
0.363406 0.809422 0.000000 
0.372600 0.858034 0.000000 
0.276003 0.911283 0.000000 
0.227432 0.875537 0.000000 
0.900400 0.296540 0.000000 
1.000000 0.301894 0.000000 
1.000000 0.439374 0.000000 
0.909098 0.440774 0.000000 
0.858756 0.370659 0.000000 
0.351996 0.000000 0.000000 
0.480872 0.000000 0.000000 
0.480790 0.104840 0.000000 
0.410209 0.138345 0.000000 
0.353906 0.101882 0.000000 
0.609924 0.000000 0.000000 
0.738035 0.000000 0.000000 
0.741837 0.103217 0.000000 
0.668934 0.138720 0.000000 
0.609577 0.102935 0.000000 
0.538063 0.137944 0.000000 
0.609577 0.102935 0.000000 
0.668934 0.138720 0.000000 
0.667690 0.218757 0.000000 
0.603143 0.257171 0.000000 
0.539648 0.226352 0.000000 
0.276003 0.911283 0.000000 
0.372600 0.858034 0.000000 
0.406569 0.882293 0.000000 
0.410180 1.000000 0.000000 
0.281073 1.000000 0.000000 
0.136154 0.398084 0.000000 
0.241650 0.398925 0.000000 
0.258307 0.443800 0.000000 
0.215411 0.527440 0.000000 
0.138698 0.526177 0.000000 
0.105179 0.474934 0.000000 
0.874328 0.887472 0.000000 
0.897262 0.857359 0.000000 
1.000000 0.855110 0.000000 
1.000000 1.000000 0.000000 
0.894295 1.000000 0.000000 
0.241650 0.398925 0.000000 
0.259648 0.361314 0.000000 
0.347363 0.333996 0.000000 
0.403010 0.380548 0.000000 
0.392175 0.457871 0.000000 
0.362088 0.478917 0.000000 
0.258307 0.443800 0.000000 
0.143200 0.663737 0.000000 
0.235042 0.650245 0.000000 
0.272279 0.696074 0.000000 
0.265455 0.761261 0.000000 
0.225566 0.793044 0.000000 
0.130645 0.764938 0.000000 
0.115474 0.736771 0.000000 
0.145438 0.261063 0.000000 
0.215782 0.268555 0.000000 
0.259648 0.361314 0.000000 
0.241650 0.398925 0.000000 
0.136154 0.398084 0.000000 
0.107203 0.350447 0.000000 
CELLS 64 419 
 5 0 1 2 3 4  
 6 5 6 7 8 9 10  
 5 11 12 13 14 15  
 6 16 17 18 19 20 21  
 4 22 23 24 25  
 5 26 27 28 29 30  
 6 31 32 33 34 35 36  
 7 37 38 39 40 41 42 43  
 5 44 45 46 47 48  
 6 49 50 51 52 53 54  
 7 55 56 57 58 59 60 61  
 6 62 63 64 65 66 67  
 6 68 69 70 71 72 73  
 5 74 75 76 77 78  
 6 79 80 81 82 83 84  
 6 85 86 87 88 89 90  
 5 91 92 93 94 95  
 5 96 97 98 99 100  
 7 101 102 103 104 105 106 107  
 5 108 109 110 111 112  
 7 113 114 115 116 117 118 119  
 6 120 121 122 123 124 125  
 6 126 127 128 129 130 131  
 5 132 133 134 135 136  
 4 137 138 139 140  
 5 141 142 143 144 145  
 6 146 147 148 149 150 151  
 4 152 153 154 155  
 5 156 157 158 159 160  
 6 161 162 163 164 165 166  
 5 167 168 169 170 171  
 5 172 173 174 175 176  
 5 177 178 179 180 181  
 5 182 183 184 185 186  
 5 187 188 189 190 191  
 5 192 193 194 195 196  
 6 197 198 199 200 201 202  
 5 203 204 205 206 207  
 6 208 209 210 211 212 213  
 5 214 215 216 217 218  
 6 219 220 221 222 223 224  
 5 225 226 227 228 229  
 5 230 231 232 233 234  
 6 235 236 237 238 239 240  
 6 241 242 243 244 245 246  
 6 247 248 249 250 251 252  
 6 253 254 255 256 257 258  
 5 259 260 261 262 263  
 6 264 265 266 267 268 269  
 6 270 271 272 273 274 275  
 5 276 277 278 279 280  
 6 281 282 283 284 285 286  
 5 287 288 289 290 291  
 6 292 293 294 295 296 297  
 5 298 299 300 301 302  
 5 303 304 305 306 307  
 5 308 309 310 311 312  
 6 313 314 315 316 317 318  
 5 319 320 321 322 323  
 6 324 325 326 327 328 329  
 5 330 331 332 333 334  
 7 335 336 337 338 339 340 341  
 7 342 343 344 345 346 347 348  
 6 349 350 351 352 353 354  
 
CELL_TYPES 64
7
7
7
7
7
7
7
7
7
7
7
7
7
7
7
7
7
7
7
7
7
7
7
7
7
7
7
7
7
7
7
7
7
7
7
7
7
7
7
7
7
7
7
7
7
7
7
7
7
7
7
7
7
7
7
7
7
7
7
7
7
7
7
7
CELL_DATA 64
FIELD FieldData 1
material 1 64 int
1
1
1
1
1
1
1
1
1
1
1
1
1
1
1
1
1
1
1
1
1
1
1
1
1
1
1
1
1
1
1
1
1
1
1
1
1
1
1
1
1
1
1
1
1
1
1
1
1
1
1
1
1
1
1
1
1
1
1
1
1
1
1
1
POINT_DATA 355 SCALARS flux_g1 double 
LOOKUP_TABLE   default 
0.085900
0.037358
-0.009642
-0.022633
-0.011478
0.001179
-0.001416
-0.014244
-0.010430
-0.007661
-0.037811
0.000124
0.001136
0.000349
0.002291
0.001521
0.499755
0.434338
0.369094
0.383918
0.465426
0.512168
0.000005
0.000004
-0.000002
0.000007
1.673932
0.834016
0.214606
-0.327796
0.661592
0.253911
0.195593
0.084844
0.032492
0.091012
0.184610
-0.056558
-0.015514
-0.003992
0.011329
0.013893
-0.011190
-0.054676
0.014543
0.000061
-0.011180
-0.016885
0.009332
-0.007470
0.000609
0.002568
0.002325
0.005960
-0.001139
0.148463
0.114298
0.013973
-0.037701
-0.051030
-0.037723
0.044123
0.743894
0.475179
0.254717
0.127496
0.450039
0.751899
0.655246
0.512246
0.440351
0.435602
0.508752
0.637824
0.041120
-0.028928
-0.038596
0.027458
-0.158904
0.380756
0.319169
0.249702
0.186516
0.273756
0.387797
-0.000056
-0.000106
-0.000026
-0.000000
0.000015
0.000022
1.393397
1.029074
0.953156
0.987736
1.389670
0.722589
0.517400
0.510672
0.654023
0.727739
0.070174
0.052906
0.012071
-0.011196
-0.023563
-0.014155
0.030488
0.104907
0.043663
-0.004875
0.012684
0.081740
0.939195
0.725893
0.669328
0.638556
0.756030
0.920479
0.983296
-0.015578
-0.010823
-0.001858
0.001457
-0.006985
-0.019470
0.202888
0.064506
-0.019533
-0.063931
-0.079138
0.113596
0.761721
0.644055
0.509583
0.516480
0.662109
0.000136
-0.000054
0.000006
-0.000212
0.673324
0.520179
0.508791
0.737320
0.766510
0.001566
0.003635
0.000819
-0.000344
-0.000567
-0.000791
1.394061
1.003763
1.028127
1.394932
0.123392
0.076515
0.019600
0.007881
0.055094
0.223667
0.170379
0.126502
0.063345
0.085723
0.202676
0.002446
0.001030
0.000334
-0.000359
0.000229
0.000368
0.001368
-0.000135
-0.000288
-0.000907
0.349260
0.246871
0.251737
0.303063
0.351811
1.382806
1.052704
0.986730
0.978844
1.550761
0.406440
0.136525
-0.052082
-0.078777
0.125773
-0.000057
-0.000280
0.000006
0.000042
0.000106
0.555248
0.491302
0.183714
0.052130
0.229500
0.503707
1.032128
0.311807
-0.112631
0.100945
0.935146
0.263391
0.170672
0.097994
0.001836
0.000192
0.125237
1.395894
1.046384
0.950514
1.043079
1.394905
0.931134
0.775788
0.710593
0.742664
0.980454
1.036113
1.390801
1.053441
0.953775
1.037723
1.382678
1.395249
1.041038
0.959415
1.039123
1.396954
-0.000368
-0.000073
0.000070
0.000047
0.000109
-0.000139
-0.039939
-0.016381
0.006372
0.008885
0.014417
-0.040146
0.002255
0.001545
-0.000256
-0.000800
-0.002190
0.007303
0.430566
0.352863
0.307473
0.314702
0.366517
0.428185
0.988312
0.735720
0.725223
0.933948
1.031864
-0.015094
-0.023175
-0.001692
0.004015
0.005778
0.009591
0.003530
0.000473
-0.000712
-0.000637
-0.001220
0.001331
0.180206
0.107570
0.082623
0.125017
0.180015
0.486478
0.377245
0.270067
0.153187
0.195067
0.498749
1.391833
0.991777
0.934671
1.033400
1.395381
0.209535
0.130077
-0.050979
-0.034022
-0.066802
-0.135994
-0.014047
-0.004189
0.003132
0.001217
-0.013310
0.507028
0.357959
0.353656
0.434074
0.512708
0.242700
0.176762
0.176314
0.217109
0.252796
0.308358
0.254303
0.216251
0.204058
0.253858
0.318485
-0.022822
-0.005581
0.002493
0.000848
0.018635
0.943403
0.708627
0.676549
0.759858
0.932299
1.041101
0.000002
0.000011
0.000000
-0.000001
-0.000003
0.699299
0.657806
0.523876
0.461770
0.477220
0.521038
0.665687
1.010771
0.714723
0.489059
0.259698
0.366164
1.046566
1.118292
0.922278
0.764434
0.672092
0.700271
0.943187
1.033440
 
