# vtk DataFile Version 3.0 
Date: 3/9/2016   Time: 10:19
ASCII 
DATASET UNSTRUCTURED_GRID 
 
POINTS 82 float 
0.265006 0.539883 0.000000 
0.484488 0.535088 0.000000 
0.518115 0.569640 0.000000 
0.500469 0.749572 0.000000 
0.328866 0.836613 0.000000 
0.234672 0.742060 0.000000 
0.600137 0.000000 0.000000 
0.785344 0.000000 0.000000 
0.811643 0.241470 0.000000 
0.726027 0.305776 0.000000 
0.600796 0.270959 0.000000 
0.407025 0.000000 0.000000 
0.600137 0.000000 0.000000 
0.600796 0.270959 0.000000 
0.504618 0.311062 0.000000 
0.395635 0.256144 0.000000 
0.000000 0.261721 0.000000 
0.192656 0.243026 0.000000 
0.258708 0.291506 0.000000 
0.232869 0.504093 0.000000 
0.000000 0.502885 0.000000 
0.000000 0.777419 0.000000 
0.234672 0.742060 0.000000 
0.328866 0.836613 0.000000 
0.320938 1.000000 0.000000 
0.000000 1.000000 0.000000 
0.000000 0.000000 0.000000 
0.206929 0.000000 0.000000 
0.192656 0.243026 0.000000 
0.000000 0.261721 0.000000 
0.785344 0.000000 0.000000 
1.000000 0.000000 0.000000 
1.000000 0.261975 0.000000 
0.811643 0.241470 0.000000 
0.258708 0.291506 0.000000 
0.395635 0.256144 0.000000 
0.504618 0.311062 0.000000 
0.484488 0.535088 0.000000 
0.265006 0.539883 0.000000 
0.232869 0.504093 0.000000 
0.726027 0.305776 0.000000 
0.811643 0.241470 0.000000 
1.000000 0.261975 0.000000 
1.000000 0.498667 0.000000 
0.768333 0.505769 0.000000 
0.518115 0.569640 0.000000 
0.731146 0.554471 0.000000 
0.782561 0.745591 0.000000 
0.666164 0.867919 0.000000 
0.500469 0.749572 0.000000 
0.328866 0.836613 0.000000 
0.500469 0.749572 0.000000 
0.666164 0.867919 0.000000 
0.670810 1.000000 0.000000 
0.320938 1.000000 0.000000 
0.731146 0.554471 0.000000 
0.768333 0.505769 0.000000 
1.000000 0.498667 0.000000 
1.000000 0.778681 0.000000 
0.782561 0.745591 0.000000 
0.666164 0.867919 0.000000 
0.782561 0.745591 0.000000 
1.000000 0.778681 0.000000 
1.000000 1.000000 0.000000 
0.670810 1.000000 0.000000 
0.206929 0.000000 0.000000 
0.407025 0.000000 0.000000 
0.395635 0.256144 0.000000 
0.258708 0.291506 0.000000 
0.192656 0.243026 0.000000 
0.000000 0.502885 0.000000 
0.232869 0.504093 0.000000 
0.265006 0.539883 0.000000 
0.234672 0.742060 0.000000 
0.000000 0.777419 0.000000 
0.504618 0.311062 0.000000 
0.600796 0.270959 0.000000 
0.726027 0.305776 0.000000 
0.768333 0.505769 0.000000 
0.731146 0.554471 0.000000 
0.518115 0.569640 0.000000 
0.484488 0.535088 0.000000 
CELLS 16 98 
 6 0 1 2 3 4 5  
 5 6 7 8 9 10  
 5 11 12 13 14 15  
 5 16 17 18 19 20  
 5 21 22 23 24 25  
 4 26 27 28 29  
 4 30 31 32 33  
 6 34 35 36 37 38 39  
 5 40 41 42 43 44  
 5 45 46 47 48 49  
 5 50 51 52 53 54  
 5 55 56 57 58 59  
 5 60 61 62 63 64  
 5 65 66 67 68 69  
 5 70 71 72 73 74  
 7 75 76 77 78 79 80 81  
 
CELL_TYPES 16
7
7
7
7
7
7
7
7
7
7
7
7
7
7
7
7
CELL_DATA 16
FIELD FieldData 1
material 1 16 int
1
1
1
1
1
1
1
1
1
1
1
1
1
1
1
1
POINT_DATA 82 SCALARS flux_g1 double 
LOOKUP_TABLE   default 
-0.000175
0.000637
0.000490
0.000429
-0.000069
-0.003516
-0.000002
0.000001
0.000000
0.000001
-0.000002
0.000061
-0.000033
-0.000014
-0.000015
0.000096
0.095593
-0.057231
-0.006333
-0.039192
0.072581
0.072105
-0.039193
-0.004807
-0.031360
0.053879
0.094605
-0.045120
-0.046405
0.098633
0.000000
-0.000000
-0.000000
0.000000
0.000184
0.000521
0.000303
0.000475
-0.000090
-0.004592
-0.000000
0.000000
0.000000
0.000000
-0.000000
0.000015
-0.000011
-0.000005
-0.000005
0.000040
-0.000481
0.000292
0.000026
0.000447
-0.000915
-0.000001
0.000000
0.000000
0.000000
-0.000000
0.000006
-0.000004
0.000000
-0.000005
0.000012
-0.001685
0.001325
0.000729
0.000961
-0.006770
0.091382
-0.062285
-0.012375
-0.039051
0.074309
0.000011
-0.000010
-0.000004
-0.000006
-0.000012
0.000011
0.000054
 
