# vtk DataFile Version 3.0 
Date: 3/9/2016   Time: 10:20
ASCII 
DATASET UNSTRUCTURED_GRID 
 
POINTS 82 float 
0.265006 0.539883 0.000000 
0.484488 0.535088 0.000000 
0.518115 0.569640 0.000000 
0.500469 0.749572 0.000000 
0.328866 0.836613 0.000000 
0.234672 0.742060 0.000000 
0.600137 0.000000 0.000000 
0.785344 0.000000 0.000000 
0.811643 0.241470 0.000000 
0.726027 0.305776 0.000000 
0.600796 0.270959 0.000000 
0.407025 0.000000 0.000000 
0.600137 0.000000 0.000000 
0.600796 0.270959 0.000000 
0.504618 0.311062 0.000000 
0.395635 0.256144 0.000000 
0.000000 0.261721 0.000000 
0.192656 0.243026 0.000000 
0.258708 0.291506 0.000000 
0.232869 0.504093 0.000000 
0.000000 0.502885 0.000000 
0.000000 0.777419 0.000000 
0.234672 0.742060 0.000000 
0.328866 0.836613 0.000000 
0.320938 1.000000 0.000000 
0.000000 1.000000 0.000000 
0.000000 0.000000 0.000000 
0.206929 0.000000 0.000000 
0.192656 0.243026 0.000000 
0.000000 0.261721 0.000000 
0.785344 0.000000 0.000000 
1.000000 0.000000 0.000000 
1.000000 0.261975 0.000000 
0.811643 0.241470 0.000000 
0.258708 0.291506 0.000000 
0.395635 0.256144 0.000000 
0.504618 0.311062 0.000000 
0.484488 0.535088 0.000000 
0.265006 0.539883 0.000000 
0.232869 0.504093 0.000000 
0.726027 0.305776 0.000000 
0.811643 0.241470 0.000000 
1.000000 0.261975 0.000000 
1.000000 0.498667 0.000000 
0.768333 0.505769 0.000000 
0.518115 0.569640 0.000000 
0.731146 0.554471 0.000000 
0.782561 0.745591 0.000000 
0.666164 0.867919 0.000000 
0.500469 0.749572 0.000000 
0.328866 0.836613 0.000000 
0.500469 0.749572 0.000000 
0.666164 0.867919 0.000000 
0.670810 1.000000 0.000000 
0.320938 1.000000 0.000000 
0.731146 0.554471 0.000000 
0.768333 0.505769 0.000000 
1.000000 0.498667 0.000000 
1.000000 0.778681 0.000000 
0.782561 0.745591 0.000000 
0.666164 0.867919 0.000000 
0.782561 0.745591 0.000000 
1.000000 0.778681 0.000000 
1.000000 1.000000 0.000000 
0.670810 1.000000 0.000000 
0.206929 0.000000 0.000000 
0.407025 0.000000 0.000000 
0.395635 0.256144 0.000000 
0.258708 0.291506 0.000000 
0.192656 0.243026 0.000000 
0.000000 0.502885 0.000000 
0.232869 0.504093 0.000000 
0.265006 0.539883 0.000000 
0.234672 0.742060 0.000000 
0.000000 0.777419 0.000000 
0.504618 0.311062 0.000000 
0.600796 0.270959 0.000000 
0.726027 0.305776 0.000000 
0.768333 0.505769 0.000000 
0.731146 0.554471 0.000000 
0.518115 0.569640 0.000000 
0.484488 0.535088 0.000000 
CELLS 16 98 
 6 0 1 2 3 4 5  
 5 6 7 8 9 10  
 5 11 12 13 14 15  
 5 16 17 18 19 20  
 5 21 22 23 24 25  
 4 26 27 28 29  
 4 30 31 32 33  
 6 34 35 36 37 38 39  
 5 40 41 42 43 44  
 5 45 46 47 48 49  
 5 50 51 52 53 54  
 5 55 56 57 58 59  
 5 60 61 62 63 64  
 5 65 66 67 68 69  
 5 70 71 72 73 74  
 7 75 76 77 78 79 80 81  
 
CELL_TYPES 16
7
7
7
7
7
7
7
7
7
7
7
7
7
7
7
7
CELL_DATA 16
FIELD FieldData 1
material 1 16 int
1
1
1
1
1
1
1
1
1
1
1
1
1
1
1
1
POINT_DATA 82 SCALARS flux_g1 double 
LOOKUP_TABLE   default 
0.022832
-0.010493
0.005920
-0.004592
0.059930
-0.184370
-0.000514
0.000115
-0.000011
-0.000033
0.000049
0.005352
-0.001299
0.000269
0.000439
-0.001179
0.666312
-0.222074
0.067018
-0.279729
0.608533
0.637657
-0.209242
0.068909
-0.205080
0.299982
0.660964
-0.129246
-0.162807
0.686378
0.000049
-0.000011
0.000001
-0.000007
0.031366
-0.007528
0.004566
-0.003554
0.083971
-0.227411
-0.000002
0.000001
-0.000000
0.000002
-0.000018
0.001385
-0.000373
0.000208
-0.000905
-0.000737
0.001291
0.001170
-0.002390
0.016320
-0.040847
-0.000162
-0.000003
-0.000010
0.000054
-0.000065
0.001279
-0.000467
0.000303
-0.001101
0.002866
-0.045844
0.011014
0.003322
0.068473
-0.149371
0.639982
-0.280138
0.083568
-0.273704
0.628564
0.002724
-0.000376
0.000006
-0.000051
-0.000500
0.002391
-0.004874
 
