# vtk DataFile Version 3.0 
Date: 3/9/2016   Time: 10:20
ASCII 
DATASET UNSTRUCTURED_GRID 
 
POINTS 6022 float 
0.859118 0.555137 0.000000 
0.877604 0.553708 0.000000 
0.888913 0.571328 0.000000 
0.879393 0.588149 0.000000 
0.861705 0.589065 0.000000 
0.850258 0.572911 0.000000 
0.352958 0.770832 0.000000 
0.375015 0.762617 0.000000 
0.387978 0.785271 0.000000 
0.369330 0.799878 0.000000 
0.351629 0.790433 0.000000 
0.848772 0.155125 0.000000 
0.861614 0.137034 0.000000 
0.876928 0.137762 0.000000 
0.887681 0.157715 0.000000 
0.876210 0.173898 0.000000 
0.859874 0.173493 0.000000 
0.292069 0.463160 0.000000 
0.314525 0.460369 0.000000 
0.324056 0.477915 0.000000 
0.309020 0.494784 0.000000 
0.290562 0.487814 0.000000 
0.787572 0.369535 0.000000 
0.798060 0.365808 0.000000 
0.818103 0.378990 0.000000 
0.817783 0.396164 0.000000 
0.796963 0.403880 0.000000 
0.781251 0.390122 0.000000 
0.582813 0.940413 0.000000 
0.605184 0.944334 0.000000 
0.610234 0.965342 0.000000 
0.590952 0.975523 0.000000 
0.573258 0.964126 0.000000 
0.059614 0.911841 0.000000 
0.077291 0.917238 0.000000 
0.078623 0.940574 0.000000 
0.059025 0.947654 0.000000 
0.043430 0.932111 0.000000 
0.651199 0.869030 0.000000 
0.661954 0.855023 0.000000 
0.684447 0.857818 0.000000 
0.690298 0.874956 0.000000 
0.679501 0.889584 0.000000 
0.656629 0.884770 0.000000 
0.000000 0.405667 0.000000 
0.025945 0.405555 0.000000 
0.034862 0.420903 0.000000 
0.026374 0.437317 0.000000 
0.000000 0.437489 0.000000 
0.642907 0.745789 0.000000 
0.653118 0.730404 0.000000 
0.672795 0.730854 0.000000 
0.681204 0.741006 0.000000 
0.672689 0.764285 0.000000 
0.651533 0.763564 0.000000 
0.867315 0.916496 0.000000 
0.884246 0.904767 0.000000 
0.901784 0.913858 0.000000 
0.899753 0.936491 0.000000 
0.884332 0.944141 0.000000 
0.868446 0.935527 0.000000 
0.472126 0.380954 0.000000 
0.487548 0.371193 0.000000 
0.505863 0.380578 0.000000 
0.507823 0.394519 0.000000 
0.490654 0.411332 0.000000 
0.472166 0.402118 0.000000 
0.652913 0.129974 0.000000 
0.662655 0.117559 0.000000 
0.679766 0.117685 0.000000 
0.689987 0.134398 0.000000 
0.676550 0.154540 0.000000 
0.659937 0.151267 0.000000 
0.611916 0.489043 0.000000 
0.629539 0.482482 0.000000 
0.637038 0.486265 0.000000 
0.643999 0.510900 0.000000 
0.638038 0.519587 0.000000 
0.617166 0.521639 0.000000 
0.607246 0.507986 0.000000 
0.234879 0.314684 0.000000 
0.249643 0.306885 0.000000 
0.267829 0.317831 0.000000 
0.265908 0.337793 0.000000 
0.249741 0.345642 0.000000 
0.233017 0.334687 0.000000 
0.774343 0.815365 0.000000 
0.793015 0.814117 0.000000 
0.803523 0.827533 0.000000 
0.796765 0.847282 0.000000 
0.775825 0.849363 0.000000 
0.765226 0.837770 0.000000 
0.300991 0.146833 0.000000 
0.316866 0.136999 0.000000 
0.334787 0.147433 0.000000 
0.334429 0.166365 0.000000 
0.317957 0.175875 0.000000 
0.300611 0.165640 0.000000 
0.904825 0.192806 0.000000 
0.915130 0.176553 0.000000 
0.934901 0.176922 0.000000 
0.943697 0.192277 0.000000 
0.934412 0.210386 0.000000 
0.914807 0.210214 0.000000 
0.361850 0.505832 0.000000 
0.377335 0.499360 0.000000 
0.394659 0.515629 0.000000 
0.389467 0.533697 0.000000 
0.369409 0.538784 0.000000 
0.359567 0.529216 0.000000 
0.539477 0.092555 0.000000 
0.556343 0.083248 0.000000 
0.572402 0.092613 0.000000 
0.571950 0.113827 0.000000 
0.557988 0.122636 0.000000 
0.539004 0.112197 0.000000 
0.317605 0.233770 0.000000 
0.334061 0.224585 0.000000 
0.351071 0.234699 0.000000 
0.350537 0.254496 0.000000 
0.334271 0.263458 0.000000 
0.316783 0.253112 0.000000 
0.265644 0.602141 0.000000 
0.284382 0.594568 0.000000 
0.300379 0.609320 0.000000 
0.296069 0.626582 0.000000 
0.279100 0.633192 0.000000 
0.262189 0.618087 0.000000 
0.557988 0.122636 0.000000 
0.571950 0.113827 0.000000 
0.592755 0.123283 0.000000 
0.592280 0.142743 0.000000 
0.575168 0.152640 0.000000 
0.557246 0.141278 0.000000 
0.088328 0.595953 0.000000 
0.097361 0.581602 0.000000 
0.118898 0.582702 0.000000 
0.126716 0.601575 0.000000 
0.118390 0.614915 0.000000 
0.095703 0.613733 0.000000 
0.156625 0.884974 0.000000 
0.172295 0.876043 0.000000 
0.189474 0.884070 0.000000 
0.189604 0.905610 0.000000 
0.173137 0.914641 0.000000 
0.158445 0.907144 0.000000 
0.089717 0.468585 0.000000 
0.096506 0.455028 0.000000 
0.119022 0.452456 0.000000 
0.129242 0.470807 0.000000 
0.122257 0.485102 0.000000 
0.098688 0.486375 0.000000 
0.333696 0.322490 0.000000 
0.349973 0.313770 0.000000 
0.366909 0.323635 0.000000 
0.366514 0.343871 0.000000 
0.349431 0.353052 0.000000 
0.332667 0.342426 0.000000 
0.796713 0.725430 0.000000 
0.815829 0.724159 0.000000 
0.827034 0.740378 0.000000 
0.817941 0.758573 0.000000 
0.799513 0.759851 0.000000 
0.787833 0.744413 0.000000 
0.483892 0.949976 0.000000 
0.499451 0.938856 0.000000 
0.515410 0.944761 0.000000 
0.518231 0.965753 0.000000 
0.499928 0.975969 0.000000 
0.483488 0.965997 0.000000 
0.834945 0.607795 0.000000 
0.852416 0.606802 0.000000 
0.863200 0.622697 0.000000 
0.848916 0.643316 0.000000 
0.825900 0.633323 0.000000 
0.964914 0.472056 0.000000 
0.973315 0.456992 0.000000 
1.000000 0.456917 0.000000 
1.000000 0.489155 0.000000 
0.973662 0.489288 0.000000 
0.387407 0.412693 0.000000 
0.402385 0.394283 0.000000 
0.425027 0.406414 0.000000 
0.421935 0.425872 0.000000 
0.403837 0.431235 0.000000 
0.215628 0.176472 0.000000 
0.235898 0.166467 0.000000 
0.249911 0.174802 0.000000 
0.250176 0.193045 0.000000 
0.230765 0.204326 0.000000 
0.214035 0.188972 0.000000 
0.530880 0.461492 0.000000 
0.548432 0.452987 0.000000 
0.561339 0.459874 0.000000 
0.564089 0.483960 0.000000 
0.544908 0.492785 0.000000 
0.529024 0.480188 0.000000 
0.434529 0.437087 0.000000 
0.455202 0.430694 0.000000 
0.468495 0.442330 0.000000 
0.460200 0.464976 0.000000 
0.442663 0.468518 0.000000 
0.431239 0.456938 0.000000 
0.823802 0.825369 0.000000 
0.832022 0.809485 0.000000 
0.850375 0.807941 0.000000 
0.861694 0.823167 0.000000 
0.852733 0.843232 0.000000 
0.835876 0.845045 0.000000 
0.302756 0.698665 0.000000 
0.314673 0.697412 0.000000 
0.328523 0.710828 0.000000 
0.325616 0.728732 0.000000 
0.307018 0.737015 0.000000 
0.291008 0.727164 0.000000 
0.289349 0.717438 0.000000 
0.832242 0.574375 0.000000 
0.850258 0.572911 0.000000 
0.861705 0.589065 0.000000 
0.852416 0.606802 0.000000 
0.834945 0.607795 0.000000 
0.823578 0.595762 0.000000 
0.572402 0.092613 0.000000 
0.590188 0.083732 0.000000 
0.602444 0.090907 0.000000 
0.604199 0.115078 0.000000 
0.592755 0.123283 0.000000 
0.571950 0.113827 0.000000 
0.747571 0.101681 0.000000 
0.766191 0.101259 0.000000 
0.776236 0.119195 0.000000 
0.766273 0.135829 0.000000 
0.746746 0.135601 0.000000 
0.737333 0.119315 0.000000 
0.379268 0.571353 0.000000 
0.398491 0.565645 0.000000 
0.412665 0.580099 0.000000 
0.407842 0.598097 0.000000 
0.389064 0.603480 0.000000 
0.374814 0.589412 0.000000 
0.000000 0.437489 0.000000 
0.026374 0.437317 0.000000 
0.035065 0.453557 0.000000 
0.027366 0.468813 0.000000 
0.000000 0.469085 0.000000 
0.195968 0.540461 0.000000 
0.219100 0.530728 0.000000 
0.234462 0.547155 0.000000 
0.232997 0.557842 0.000000 
0.213745 0.569140 0.000000 
0.193091 0.552733 0.000000 
0.488631 0.000000 0.000000 
0.522841 0.000000 0.000000 
0.522806 0.024259 0.000000 
0.505758 0.034264 0.000000 
0.488586 0.024071 0.000000 
0.000000 0.531064 0.000000 
0.027947 0.531148 0.000000 
0.035480 0.546864 0.000000 
0.027578 0.562225 0.000000 
0.000000 0.562061 0.000000 
0.563043 0.587414 0.000000 
0.583752 0.585114 0.000000 
0.593844 0.604380 0.000000 
0.577255 0.620891 0.000000 
0.557930 0.610942 0.000000 
0.314525 0.460369 0.000000 
0.322129 0.444705 0.000000 
0.340142 0.442307 0.000000 
0.351548 0.468940 0.000000 
0.341611 0.480751 0.000000 
0.324056 0.477915 0.000000 
0.707701 0.168065 0.000000 
0.716492 0.152458 0.000000 
0.736997 0.152633 0.000000 
0.746472 0.169606 0.000000 
0.737041 0.185513 0.000000 
0.716431 0.186236 0.000000 
0.844339 0.704832 0.000000 
0.853256 0.688667 0.000000 
0.874230 0.687917 0.000000 
0.883818 0.705291 0.000000 
0.875160 0.721311 0.000000 
0.855039 0.722250 0.000000 
0.000000 0.782504 0.000000 
0.027368 0.783211 0.000000 
0.034735 0.797681 0.000000 
0.025872 0.814438 0.000000 
0.000000 0.813955 0.000000 
0.367445 0.264381 0.000000 
0.384141 0.255218 0.000000 
0.400577 0.264763 0.000000 
0.400516 0.284942 0.000000 
0.383777 0.294210 0.000000 
0.367011 0.284552 0.000000 
0.451001 0.502333 0.000000 
0.470964 0.495979 0.000000 
0.485031 0.510676 0.000000 
0.481370 0.527404 0.000000 
0.460764 0.533598 0.000000 
0.446856 0.519056 0.000000 
0.056412 0.213162 0.000000 
0.065626 0.197358 0.000000 
0.087515 0.198024 0.000000 
0.095259 0.213967 0.000000 
0.084875 0.231121 0.000000 
0.065464 0.230532 0.000000 
0.087759 0.165023 0.000000 
0.096259 0.150210 0.000000 
0.116702 0.149409 0.000000 
0.127285 0.168181 0.000000 
0.119173 0.182630 0.000000 
0.096325 0.182524 0.000000 
0.064222 0.813849 0.000000 
0.086261 0.815572 0.000000 
0.092624 0.830708 0.000000 
0.082266 0.847863 0.000000 
0.062069 0.845445 0.000000 
0.054522 0.830744 0.000000 
0.863993 0.064813 0.000000 
0.877173 0.059597 0.000000 
0.890761 0.066429 0.000000 
0.895080 0.086263 0.000000 
0.878764 0.100641 0.000000 
0.864816 0.098505 0.000000 
0.857335 0.087153 0.000000 
0.965234 0.160161 0.000000 
0.974056 0.144871 0.000000 
1.000000 0.145094 0.000000 
1.000000 0.176448 0.000000 
0.973555 0.176336 0.000000 
0.343686 0.972693 0.000000 
0.356524 0.964869 0.000000 
0.374318 0.972940 0.000000 
0.374195 1.000000 0.000000 
0.343630 1.000000 0.000000 
0.369409 0.538784 0.000000 
0.389467 0.533697 0.000000 
0.403166 0.547985 0.000000 
0.398491 0.565645 0.000000 
0.379268 0.571353 0.000000 
0.365652 0.557848 0.000000 
0.580460 0.552861 0.000000 
0.586788 0.540839 0.000000 
0.609819 0.538458 0.000000 
0.619888 0.555529 0.000000 
0.611820 0.570605 0.000000 
0.590850 0.572141 0.000000 
0.787339 0.942974 0.000000 
0.800364 0.934790 0.000000 
0.819339 0.944520 0.000000 
0.818737 0.965473 0.000000 
0.804551 0.973591 0.000000 
[...]
CELL_DATA 1024
FIELD FieldData 1
material 1 1024 int
1
1
1
1
1
1
1
1
1
1
1
1
1
1
1
1
1
1
1
1
1
1
1
1
1
1
1
1
1
1
1
1
1
1
1
1
1
1
1
1
1
1
1
1
1
1
1
1
1
1
1
1
1
1
1
1
1
1
1
1
1
1
1
1
1
1
1
1
1
1
1
1
1
1
1
1
1
1
1
1
1
1
1
1
1
1
1
1
1
1
1
1
1
1
1
1
1
1
1
1
1
1
1
1
1
1
1
1
1
1
1
1
1
1
1
1
1
1
1
1
1
1
1
1
1
1
1
1
1
1
1
1
1
1
1
1
1
1
1
1
1
1
1
1
1
1
1
1
1
1
1
1
1
1
1
1
1
1
1
1
1
1
1
1
1
1
1
1
1
1
1
1
1
1
1
1
1
1
1
1
1
1
1
1
1
1
1
1
1
1
1
1
1
1
1
1
1
1
1
1
1
1
1
1
1
1
1
1
1
1
1
1
1
1
1
1
1
1
1
1
1
1
1
1
1
1
1
1
1
1
1
1
1
1
1
1
1
1
1
1
1
1
1
1
1
1
1
1
1
1
1
1
1
1
1
1
1
1
1
1
1
1
1
1
1
1
1
1
1
1
1
1
1
1
1
1
1
1
1
1
1
1
1
1
1
1
1
1
1
1
1
1
1
1
1
1
1
1
1
1
1
1
1
1
1
1
1
1
1
1
1
1
1
1
1
1
1
1
1
1
1
1
1
1
1
1
1
1
1
1
1
1
1
1
1
1
1
1
1
1
1
1
1
1
1
1
1
1
1
1
1
1
1
1
1
1
1
1
1
1
1
1
1
1
1
1
1
1
1
1
1
1
1
1
1
1
1
1
1
1
1
1
1
1
1
1
1
1
1
1
1
1
1
1
1
1
1
1
1
1
1
1
1
1
1
1
1
1
1
1
1
1
1
1
1
1
1
1
1
1
1
1
1
1
1
1
1
1
1
1
1
1
1
1
1
1
1
1
1
1
1
1
1
1
1
1
1
1
1
1
1
1
1
1
1
1
1
1
1
1
1
1
1
1
1
1
1
1
1
1
1
1
1
1
1
1
1
1
1
1
1
1
1
1
1
1
1
1
1
1
1
1
1
1
1
1
1
1
1
1
1
1
1
1
1
1
1
1
1
1
1
1
1
1
1
1
1
1
1
1
1
1
1
1
1
1
1
1
1
1
1
1
1
1
1
1
1
1
1
1
1
1
1
1
1
1
1
1
1
1
1
1
1
1
1
1
1
1
1
1
1
1
1
1
1
1
1
1
1
1
1
1
1
1
1
1
1
1
1
1
1
1
1
1
1
1
1
1
1
1
1
1
1
1
1
1
1
1
1
1
1
1
1
1
1
1
1
1
1
1
1
1
1
1
1
1
1
1
1
1
1
1
1
1
1
1
1
1
1
1
1
1
1
1
1
1
1
1
1
1
1
1
1
1
1
1
1
1
1
1
1
1
1
1
1
1
1
1
1
1
1
1
1
1
1
1
1
1
1
1
1
1
1
1
1
1
1
1
1
1
1
1
1
1
1
1
1
1
1
1
1
1
1
1
1
1
1
1
1
1
1
1
1
1
1
1
1
1
1
1
1
1
1
1
1
1
1
1
1
1
1
1
1
1
1
1
1
1
1
1
1
1
1
1
1
1
1
1
1
1
1
1
1
1
1
1
1
1
1
1
1
1
1
1
1
1
1
1
1
1
1
1
1
1
1
1
1
1
1
1
1
1
1
1
1
1
1
1
1
1
1
1
1
1
1
1
1
1
1
1
1
1
1
1
1
1
1
1
1
1
1
1
1
1
1
1
1
1
1
1
1
1
1
1
1
1
1
1
1
1
1
1
1
1
1
1
1
1
1
1
1
1
1
1
1
1
1
1
1
1
1
1
1
1
1
1
1
1
1
1
1
1
1
1
1
1
1
1
1
1
1
1
1
1
1
1
1
1
1
1
1
1
1
1
1
1
1
1
1
1
1
1
1
1
1
1
1
1
1
1
1
1
1
1
1
1
1
1
1
1
1
1
1
1
1
1
1
1
1
1
1
1
1
1
1
1
1
1
1
1
1
1
1
1
1
1
1
1
1
1
1
1
1
1
1
1
1
1
1
1
1
1
1
1
1
1
1
1
1
1
1
1
1
1
1
1
1
1
1
1
1
1
1
1
1
1
1
1
1
1
1
1
1
1
1
1
1
1
1
1
1
1
1
1
1
1
1
1
1
1
1
1
1
1
1
1
1
1
1
1
1
1
1
1
1
1
1
1
1
1
1
1
1
1
1
1
1
1
1
1
1
1
1
1
POINT_DATA 6022 SCALARS flux_g1 double 
LOOKUP_TABLE   default 
0.000000
0.000000
-0.000000
-0.000000
-0.000000
0.000000
0.001517
0.001661
0.000161
-0.000001
0.002801
0.057202
0.061337
0.039038
0.001668
-0.000201
0.009557
0.613394
0.575738
0.560385
0.584875
0.615848
0.000869
0.000830
0.000158
-0.000172
-0.000022
0.000940
-0.000000
-0.000000
0.000000
0.000000
-0.000000
1.302348
0.686508
0.058289
0.378049
1.274992
-0.000000
-0.000000
-0.000000
0.000000
0.000000
-0.000000
1.412849
1.313191
1.280192
1.310757
1.413039
0.000000
0.000000
0.000000
0.000000
-0.000000
0.000000
0.000000
0.000000
0.000000
-0.000000
-0.000000
0.000000
0.364333
0.347967
0.336159
0.337693
0.355785
0.362812
0.219087
0.212954
0.202817
0.196489
0.203934
0.214315
-0.006868
-0.003684
-0.001916
0.002682
0.001553
0.003274
-0.002796
0.722394
0.692710
0.658157
0.661181
0.692692
0.726189
0.000000
0.000000
-0.000000
-0.000000
-0.000000
0.000000
0.598090
0.571647
0.543568
0.543586
0.570010
0.598614
-0.004555
-0.006148
-0.002906
-0.000192
0.000419
-0.000803
0.498268
0.479404
0.471008
0.482860
0.507818
0.505938
0.302584
0.288409
0.275713
0.275802
0.287158
0.302910
0.570333
0.544271
0.518893
0.519182
0.544100
0.571590
0.653721
0.623526
0.615665
0.632820
0.656196
0.659870
0.287001
0.275772
0.260109
0.260185
0.273343
0.287537
1.099037
1.069671
1.007217
0.984420
1.007966
1.074288
-0.031151
-0.039604
-0.020788
-0.001330
0.004674
-0.065385
1.094849
1.072153
1.006830
0.977393
0.996776
1.065125
0.544673
0.520066
0.495918
0.495995
0.520976
0.546260
-0.000000
-0.000000
0.000000
0.000000
0.000000
-0.000000
-0.000000
-0.000000
-0.000000
0.000000
0.000000
0.000000
-0.000000
-0.000000
-0.000000
0.000000
-0.000000
-0.000000
0.000000
-0.000000
-0.000000
-0.000000
0.467827
0.448165
0.419352
0.421916
0.445207
0.762749
0.720555
0.692797
0.691550
0.731176
0.766964
0.179962
0.139202
0.070194
-0.017962
0.012405
0.116262
0.405120
0.387029
0.382969
0.396956
0.414765
0.412850
-0.000000
-0.000000
-0.000000
0.000000
0.000000
0.000000
0.260412
0.176285
0.015464
-0.053740
-0.012337
0.083830
0.229671
0.000000
0.000000
-0.000000
-0.000000
-0.000000
0.000000
0.275440
0.261830
0.253041
0.251555
0.260019
0.275653
0.165445
0.159023
0.157872
0.163566
0.169248
0.171284
0.515726
0.430915
0.259446
0.185631
0.272532
0.481519
1.412819
1.311570
1.279469
1.307058
1.412960
0.806664
0.756215
0.723815
0.726139
0.767479
0.814214
0.349592
0.317528
0.317447
0.333210
0.350062
1.412723
1.305678
1.277986
1.306267
1.412976
0.001000
0.000616
-0.000014
-0.000037
0.000723
0.575515
0.562674
0.535248
0.518330
0.533070
0.560244
0.188368
0.182559
0.175973
0.175193
0.179824
0.190766
-0.000000
-0.000000
-0.000000
0.000000
0.000000
0.000000
1.412789
1.307856
1.280698
1.312686
1.413116
0.494643
0.471703
0.450436
0.450075
0.472293
0.495152
0.412144
0.337835
0.196393
0.137157
0.211350
0.378827
1.203893
1.171202
1.101712
1.076964
1.109049
1.171549
1.100864
1.072993
1.013549
0.982845
1.005633
1.072410
1.173061
1.102626
1.084189
1.124862
1.161879
1.212114
0.126810
0.119497
0.102490
0.084234
0.087334
0.112652
0.123884
-0.001297
-0.001800
0.000019
0.000897
0.001034
-0.000000
-0.000000
0.000000
-0.000000
0.000000
0.508464
0.480980
0.459196
0.452610
0.506295
0.512359
0.000589
0.000994
0.000706
0.000570
0.000409
0.000966
0.000000
0.000000
-0.000000
-0.000000
0.000000
-0.000000
0.158407
0.151854
0.142961
0.147136
0.153462
-0.000000
-0.000000
0.000000
0.000000
-0.000000
0.000000
-0.000000
-0.000000
-0.000000
0.000000
0.000000
-0.000000
1.412764
1.309127
1.279850
1.307425
1.412946
-0.002520
-0.004371
-0.004369
-0.005014
-0.003745
-0.008443
1.412796
1.308943
1.280680
1.311338
1.413089
1.309794
1.277972
1.201590
1.171395
1.200078
1.277637
0.186155
0.179752
0.171715
0.169207
0.175383
0.181487
0.296995
0.286045
0.271364
0.265777
0.276602
0.308806
0.315176
0.307368
0.273301
0.250045
0.261409
0.330857
0.349883
0.333370
0.317778
0.317664
0.333457
0.350080
1.216566
1.180415
1.116299
1.092251
1.128476
1.188581
0.722680
0.679946
0.648883
0.650359
0.690929
0.726604
0.001035
0.000438
-0.000003
-0.000120
-0.000517
0.000499
0.000064
-0.000139
-0.000132
0.000317
0.835923
0.580851
0.259111
-0.107317
-0.001052
0.473265
1.206996
1.174616
1.104190
1.081300
1.115389
1.180109
0.000000
0.000000
-0.000000
-0.000000
-0.000000
0.000000
0.472823
0.450139
0.428790
0.427388
0.449742
0.472626
0.914404
0.863357
0.836684
0.844373
0.897644
0.931510
0.202890
0.196467
0.186514
0.180646
0.186216
0.196106
-0.000000
-0.000000
0.000000
0.000000
0.000000
0.000000
-0.000067
-0.000031
0.000010
0.000009
-0.000005
0.662486
0.631620
0.584808
0.577854
0.626366
0.674776
-0.000051
-0.000098
-0.000028
0.000016
0.000010
0.000007
0.409277
0.389465
0.372553
0.371849
0.390477
0.408952
0.000290
0.000432
0.000100
-0.000211
-0.000123
-0.000304
-0.003096
-0.001366
0.000498
0.001165
0.000666
-0.000210
0.000000
0.000000
0.000000
-0.000000
-0.000000
-0.000000
0.939794
0.899098
0.845614
0.856328
0.914094
0.000001
0.000000
-0.000000
-0.000000
-0.000074
-0.000054
-0.000007
0.000005
-0.000072
0.080682
0.041425
0.019067
0.041633
0.060189
-0.000013
-0.000004
0.000001
0.000004
0.000000
0.000014
-0.000000
-0.000000
-0.000000
0.000000
0.000000
0.000000
0.683846
0.587314
0.304164
0.255575
0.637304
0.001638
0.002021
0.000751
-0.000186
-0.000513
0.003133
0.000000
0.000000
0.000000
-0.000000
0.000000
0.000003
0.000006
0.000004
0.000002
-0.000000
0.000008
0.195963
0.187137
0.180807
0.186424
0.196464
0.201440
0.000000
0.000000
0.000000
-0.000000
0.000000
0.000001
0.000004
0.000002
0.000000
-0.000001
0.000010
0.160283
0.146204
0.145341
0.153245
0.160972
0.000000
0.000000
-0.000000
-0.000000
-0.000000
0.000000
1.412866
1.312148
1.283087
1.316254
1.413201
1.177788
1.129525
1.091057
1.117864
1.177980
1.217593
0.479030
0.452896
0.437466
0.443647
0.469661
0.491589
0.000072
-0.000022
-0.000034
-0.000076
-0.000054
-0.000071
-0.000214
-0.011879
-0.009398
-0.002071
0.000442
-0.000961
-0.009353
0.074293
0.057390
0.043649
0.017584
0.018838
0.046692
0.852721
0.807817
0.780579
0.784851
0.835796
0.863185
0.234008
0.219113
0.214409
0.223773
0.239144
0.571960
0.545183
0.518754
0.518492
0.544121
0.572117
1.194952
1.165795
1.092950
1.068107
1.093892
1.167434
-0.000000
-0.000000
-0.000000
0.000000
0.000000
0.000000
-0.000000
-0.000000
-0.000000
-0.000000
0.000000
-0.000000
0.598271
0.570617
0.543891
0.544181
0.570609
0.599332
0.837700
0.805907
0.773980
0.794313
0.802831
0.846661
-0.017600
-0.011920
-0.002499
0.003454
0.001279
-0.011510
1.194258
1.168255
1.094750
1.066577
1.088911
1.165220
-0.000000
0.000000
-0.000000
-0.000000
-0.000000
-0.000000
-0.026330
-0.020400
-0.005829
0.004692
0.002643
-0.012235
-0.000013
-0.000004
0.000006
0.000009
0.000006
-0.000004
-0.012044
-0.006004
0.000167
0.003588
0.002058
0.001653
-0.001234
0.000848
0.001409
0.000704
0.003444
0.299200
0.111550
-0.002089
-0.094819
-0.078350
-0.025331
1.311926
1.279663
1.203971
1.172515
1.202887
1.278413
-0.040339
-0.030638
-0.006547
0.007568
0.005559
-0.017921
0.574371
0.547711
0.542206
0.553984
0.578653
0.582175
1.172824
1.108844
1.078692
1.107587
1.171357
1.203747
0.000000
-0.000000
-0.000000
-0.000000
0.000000
-0.000000
1.319970
1.283164
1.209678
1.181342
1.217801
1.278648
1.108821
1.083461
1.002653
0.987446
1.018350
1.077535
1.308291
1.278667
1.207863
1.176416
1.217467
1.281842
-0.000003
-0.000004
0.000002
0.000008
0.000004
0.000016
0.551017
0.463128
0.279117
0.194239
0.285145
0.522288
-0.000000
-0.000000
-0.000000
0.000000
0.000000
0.000000
0.418699
0.403819
0.381545
0.384800
0.405628
0.422080
0.000000
0.000000
-0.000000
-0.000000
-0.000000
0.000000
0.000000
0.000000
0.000000
-0.000000
0.000000
0.000005
0.000010
0.000004
-0.000000
-0.000001
0.000002
-0.000038
-0.000085
-0.000075
-0.000052
-0.000011
-0.000193
0.000000
-0.000000
0.000000
0.000000
0.000000
0.000000
0.000003
0.000002
0.000001
-0.000001
-0.000001
0.000002
0.699286
0.661287
0.631530
0.631190
0.658540
0.699029
0.917360
0.895269
0.852379
0.815769
0.819074
0.847453
0.901682
0.820991
0.771400
0.736782
0.738433
0.775624
0.820495
-0.000000
-0.000000
-0.000000
0.000000
0.000000
0.000000
1.412713
1.308281
1.283083
1.302136
1.412911
-0.000015
-0.000027
-0.000006
0.000013
0.000009
0.000020
0.303912
0.292156
0.279895
0.280160
0.295137
0.303263
0.000008
0.000004
-0.000002
-0.000002
-0.000003
0.000007
0.386165
0.367918
0.350329
0.350349
0.368349
0.386431
0.001842
0.002221
0.000649
-0.000155
-0.000154
0.003525
0.158632
0.154040
0.147867
0.146719
0.152298
0.158764
0.000002
0.000003
0.000001
-0.000000
-0.000001
0.000006
0.288240
0.274325
0.262458
0.261784
0.275525
0.288302
0.000000
0.000000
0.000000
-0.000000
-0.000000
-0.000000
0.000000
0.000000
-0.000000
-0.000000
-0.000000
0.000000
0.686892
0.646025
0.624727
0.627146
0.667370
0.690992
0.006951
-0.006774
-0.013781
-0.016896
-0.014664
-0.018608
-0.000040
-0.000064
-0.000050
-0.000041
-0.000025
-0.000082
0.852189
0.898635
0.717395
0.508666
0.297679
0.345125
0.796850
-0.000001
-0.000001
-0.000000
0.000000
0.000000
-0.000001
0.000000
0.000000
0.000000
-0.000000
-0.000000
-0.000000
-0.000000
-0.000000
-0.000000
0.000000
0.000000
0.000000
0.005016
-0.004920
-0.010277
-0.011177
-0.009300
-0.026623
0.000000
0.000000
-0.000000
-0.000000
0.000000
-0.000000
-0.000000
-0.000000
0.000000
0.000000
0.000000
0.000000
0.000000
-0.000000
-0.000000
0.000000
0.479877
0.396146
0.239989
0.171368
0.253271
0.446329
-0.000042
-0.000062
-0.000012
0.000015
0.000011
0.000007
0.648747
0.609062
0.578695
0.582975
0.616120
0.651687
0.000001
0.000003
0.000000
-0.000001
-0.000000
-0.000000
1.116637
1.082114
1.038180
1.000329
1.021781
1.080026
1.297527
1.311979
1.214512
0.858864
0.656284
0.753201
1.423240
0.219981
0.214636
0.201481
0.196519
0.202692
0.212965
0.000000
0.000000
0.000000
-0.000000
0.000000
1.077135
1.018642
0.981702
0.960376
0.995941
1.057789
0.000883
0.001630
0.000828
0.000070
0.000049
0.000341
0.273167
0.260238
0.247097
0.249713
0.261279
0.273913
-0.000000
-0.000000
0.000000
0.000000
0.000000
-0.000000
-0.000000
-0.000000
0.000000
0.000000
0.000000
0.603074
0.574890
0.551459
0.549494
0.579345
0.607696
1.127794
1.089397
1.028446
1.010555
1.051348
1.090149
1.302645
1.281818
1.218610
1.180375
1.220211
1.284037
1.300441
0.000068
0.000038
-0.000030
-0.000077
-0.000069
-0.000050
-0.000248
-0.000000
-0.000000
0.000000
0.000000
0.000000
-0.000000
0.001621
0.001203
0.000219
-0.000337
-0.000289
0.000571
0.426932
0.406356
0.387937
0.387618
0.407844
0.427041
0.435435
0.415538
0.411969
0.422848
0.444777
0.444489
1.090106
1.032443
0.998244
1.037021
1.082138
1.118660
1.309088
1.277613
1.204051
1.172719
1.206871
1.278500
0.996887
0.957649
0.913287
0.893653
0.928289
0.967456
-0.000000
0.000000
-0.000000
-0.000000
-0.000000
0.000000
-0.000000
0.760477
0.726485
0.693067
0.696279
0.732045
0.765147
0.658033
0.630269
0.598712
0.600234
0.627289
0.660997
1.412749
1.307847
1.278089
1.304766
1.412924
0.125017
0.079762
0.015799
0.024744
0.105820
0.261279
0.249839
0.237220
0.237663
0.249690
0.263321
0.281987
0.262619
0.195331
0.129293
0.139615
0.255223
-0.009360
-0.008407
-0.003287
-0.001284
-0.002886
-0.012155
0.046424
0.050370
0.027283
-0.006654
-0.007280
-0.004551
0.007743
-0.008150
-0.016092
-0.018002
-0.016525
-0.024082
0.001449
0.001591
0.000546
-0.000266
-0.000669
0.002605
0.771069
0.724225
0.720305
0.763163
0.795478
-0.000000
0.000000
-0.000000
-0.000000
0.000000
-0.000000
-0.000122
-0.000095
-0.000035
-0.000017
-0.000017
-0.000131
1.309670
1.277766
1.201042
1.172178
1.203046
1.277508
-0.000341
0.001314
0.001221
0.000695
0.003699
0.000892
0.000479
-0.000065
-0.000116
0.000292
-0.002563
-0.000947
0.001042
0.001095
0.000827
-0.001163
0.824870
0.780072
0.750868
0.755548
0.806999
0.840940
0.385610
0.350129
0.350040
0.367428
0.386128
1.150164
1.043618
1.042790
1.097732
1.153543
0.000000
0.000000
-0.000000
-0.000000
-0.000000
0.000000
0.518194
0.493813
0.470120
0.469864
0.493321
0.518401
0.705716
0.673979
0.615875
0.606373
0.666960
0.721974
0.999774
0.967867
0.932671
0.938660
0.969181
0.995915
1.100063
1.065555
1.006409
0.988256
1.015503
1.063184
-0.000000
-0.000000
0.000000
0.000000
0.000000
0.000000
0.000360
0.000124
-0.000029
-0.000083
-0.000026
-0.000333
0.000006
0.000004
0.000006
0.000003
0.000009
-0.000000
-0.000000
-0.000000
0.000000
0.000000
-0.000000
-0.000000
-0.000000
0.000000
0.000000
0.000000
0.281324
0.193764
0.035779
-0.037308
0.013718
0.195786
-0.037327
-0.043801
-0.017178
0.002975
0.008921
-0.078059
0.214949
0.210004
0.193785
0.191863
0.202587
0.222496
-0.000000
-0.000000
-0.000000
0.000000
-0.000000
0.002984
0.001661
-0.001991
-0.007644
-0.006404
-0.011188
-0.002772
0.000094
0.001141
0.001108
0.000009
0.006459
-0.000000
-0.000000
-0.000000
0.000000
-0.000000
0.543001
0.518219
0.493492
0.493400
0.517741
0.543472
0.051832
0.045385
0.019923
-0.002633
-0.002202
0.004396
0.040684
-0.005332
-0.005128
-0.006249
-0.004901
-0.010244
-0.002747
-0.000032
-0.000016
0.000007
0.000014
0.000013
-0.000020
0.493628
0.332090
0.109655
-0.055085
-0.001698
0.215348
1.412754
1.307066
1.279129
1.308141
1.413018
0.723742
0.696609
0.658673
0.661203
0.689376
0.727207
0.088971
0.062499
0.013820
-0.023936
-0.010221
0.019796
1.078391
1.109754
0.831604
0.545896
0.556305
1.066316
-0.000000
-0.000000
0.000000
0.000000
-0.000000
-0.000000
0.000870
0.000427
0.000149
-0.000050
0.000169
0.000518
0.469372
0.446345
0.442363
0.452977
0.472143
0.477866
0.000000
0.000000
0.000000
-0.000000
-0.000000
-0.000000
1.412808
1.311023
1.279447
1.308988
1.413012
0.000722
0.000387
-0.000025
-0.000200
-0.000105
-0.000257
0.333510
0.317570
0.302239
0.302520
0.318461
0.333974
0.599874
0.572320
0.544439
0.544227
0.571380
0.600012
0.195338
0.177002
0.177078
0.186316
0.194926
0.131261
0.120850
0.123006
0.128234
0.131680
0.000000
-0.000000
0.000000
0.000000
-0.000000
0.000000
0.000014
-0.000061
-0.000038
-0.000010
0.000029
-0.000221
0.104975
0.093475
0.053579
0.043034
0.050075
0.083402
1.116000
1.080714
1.024690
1.002147
1.042886
1.091449
0.000000
0.000000
-0.000000
-0.000000
-0.000000
0.000054
0.000355
0.000596
0.000496
0.000964
0.000101
0.317437
0.302408
0.288550
0.288362
0.302716
0.317601
-0.000026
-0.000019
0.000001
0.000010
0.000005
0.000019
-0.011695
-0.024211
-0.017588
-0.010567
-0.010375
-0.053998
-0.000914
0.000480
0.000949
0.000896
0.000775
0.001763
-0.000001
-0.000001
-0.000000
0.000000
0.000000
-0.000000
0.001349
0.001005
0.000151
-0.000286
-0.000295
0.000502
0.145860
0.132037
0.132071
0.138443
0.145158
0.858111
0.815851
0.770550
0.779360
0.824882
0.425890
0.405708
0.386587
0.386472
0.406233
0.426121
-0.000002
-0.000001
0.000000
0.000000
0.000000
-0.000001
0.000012
0.000007
-0.000000
-0.000002
-0.000003
0.000009
0.000460
0.000812
0.000534
0.000038
-0.000228
-0.000148
-0.000199
0.212662
0.203399
0.201204
0.208643
0.212918
0.215640
1.179565
1.128128
1.090633
1.128350
1.177941
1.220871
0.688995
0.661250
0.627591
0.629829
0.657849
0.692415
1.312050
1.279222
1.201266
1.175635
1.206230
1.281604
0.000000
0.000000
0.000000
0.000000
-0.000000
0.000000
1.323132
1.285047
1.216898
1.189592
1.224651
1.283896
0.288197
0.274046
0.261412
0.263146
0.275769
0.289132
1.024266
0.987387
0.939199
0.918403
0.957869
1.001491
-0.000000
-0.000000
-0.000000
0.000000
0.000000
0.000000
0.004194
-0.002409
-0.010001
-0.011678
-0.013557
-0.009199
-0.001805
-0.000756
0.000656
0.001030
0.000666
0.000500
-0.010411
-0.020241
-0.016877
-0.013395
-0.013112
-0.038797
-0.001889
-0.002627
-0.000885
0.001062
0.000973
0.001502
0.000000
0.000000
0.000000
-0.000000
-0.000000
0.000000
0.990041
0.935532
0.909785
0.936104
0.985780
1.016872
0.533338
0.517840
0.491189
0.472257
0.477646
0.499053
0.523294
0.121661
0.115740
0.103268
0.095891
0.103362
0.122800
0.922930
0.872375
0.868783
0.919948
0.960470
-0.000869
-0.000900
-0.000076
0.000959
0.000783
0.001335
-0.012752
-0.043438
-0.030942
-0.012795
-0.004552
-0.114973
0.136126
0.140598
0.105943
0.055547
0.047433
0.084887
0.001139
0.000722
-0.000056
-0.000271
-0.000252
0.000774
-0.000144
-0.000135
-0.000019
0.000011
0.000011
-0.000185
0.000000
0.000000
0.000000
-0.000000
-0.000000
-0.000000
0.855368
0.774403
0.774662
0.812074
0.854702
1.412651
1.302176
1.276756
1.307057
1.413011
-0.000002
-0.000001
0.000000
0.000000
0.000000
-0.000001
0.367376
0.349999
0.333528
0.333311
0.350047
0.367469
0.997603
0.976399
0.915249
0.886675
0.919674
0.970571
1.022668
0.999555
0.949745
0.915269
0.930648
0.987022
1.006918
0.987127
0.931468
0.898606
0.914466
0.976126
0.880317
0.843651
0.810420
0.792091
0.805541
0.859758
0.000000
0.000000
0.000000
-0.000000
-0.000000
-0.000000
-0.011091
-0.022042
-0.016603
-0.013351
-0.014667
-0.043398
0.000000
0.000000
0.000000
-0.000000
-0.000000
0.000000
0.000000
0.000000
-0.000000
-0.000000
-0.000000
0.000000
0.709245
0.669398
0.643244
0.645650
0.687110
0.712374
0.187170
0.183910
0.170154
0.166114
0.171608
0.180684
-0.000000
-0.000000
-0.000000
0.000000
0.000000
0.000000
0.550843
0.522265
0.498546
0.499310
0.533292
0.549484
0.000000
0.000000
0.000000
0.000000
-0.000000
0.000000
-0.000037
-0.000027
-0.000007
0.000010
0.000006
0.000004
1.007543
1.016567
0.963165
0.889817
0.863587
1.124039
-0.000000
-0.000000
-0.000000
0.000000
0.000000
0.323044
0.307491
0.293921
0.292895
0.304674
0.321479
0.000003
0.000003
0.000004
0.000002
-0.000000
0.000010
0.444529
0.422146
0.407306
0.412786
0.435071
0.453027
0.769842
0.738169
0.703055
0.707990
0.750230
0.779984
0.000005
0.000006
0.000001
-0.000002
-0.000002
-0.000003
0.642410
0.607828
0.579751
0.585017
0.624010
0.645960
0.318286
0.302604
0.288554
0.289136
0.304336
0.318851
0.276799
0.264482
0.253973
0.261243
0.267334
0.278315
0.000000
0.000000
0.000000
-0.000000
-0.000000
0.000548
0.000246
-0.000026
-0.000143
-0.000052
-0.000312
0.623856
0.585442
0.563369
0.575327
0.613432
0.627329
0.544896
0.514480
0.491894
0.485902
0.538793
0.549578
0.000004
0.000007
0.000002
-0.000001
-0.000001
0.000001
0.493080
0.469934
0.447547
0.447345
0.469779
0.493309
0.613141
0.585346
0.577248
0.592657
0.617145
0.620189
0.199833
0.192449