# vtk DataFile Version 3.0 
Date: 3/9/2016   Time: 10:20
ASCII 
DATASET UNSTRUCTURED_GRID 
 
POINTS 355 float 
0.650310 0.369943 0.000000 
0.743548 0.322659 0.000000 
0.798409 0.375924 0.000000 
0.755644 0.470602 0.000000 
0.669350 0.450466 0.000000 
0.615911 0.506337 0.000000 
0.669350 0.450466 0.000000 
0.755644 0.470602 0.000000 
0.775707 0.507059 0.000000 
0.738388 0.587470 0.000000 
0.637658 0.580728 0.000000 
0.909098 0.440774 0.000000 
1.000000 0.439374 0.000000 
1.000000 0.581918 0.000000 
0.897444 0.579247 0.000000 
0.864312 0.516710 0.000000 
0.357279 0.250936 0.000000 
0.406351 0.222458 0.000000 
0.479811 0.259466 0.000000 
0.477245 0.348130 0.000000 
0.403010 0.380548 0.000000 
0.347363 0.333996 0.000000 
0.773176 0.892848 0.000000 
0.874328 0.887472 0.000000 
0.894295 1.000000 0.000000 
0.752491 1.000000 0.000000 
0.000000 0.870327 0.000000 
0.091084 0.864385 0.000000 
0.139229 0.912727 0.000000 
0.132405 1.000000 0.000000 
0.000000 1.000000 0.000000 
0.603143 0.257171 0.000000 
0.667690 0.218757 0.000000 
0.746251 0.262549 0.000000 
0.743548 0.322659 0.000000 
0.650310 0.369943 0.000000 
0.610842 0.348219 0.000000 
0.417571 0.733609 0.000000 
0.490581 0.738458 0.000000 
0.514991 0.768469 0.000000 
0.499066 0.861970 0.000000 
0.406569 0.882293 0.000000 
0.372600 0.858034 0.000000 
0.363406 0.809422 0.000000 
0.930519 0.150271 0.000000 
1.000000 0.147447 0.000000 
1.000000 0.301894 0.000000 
0.900400 0.296540 0.000000 
0.871357 0.244426 0.000000 
0.775707 0.507059 0.000000 
0.864312 0.516710 0.000000 
0.897444 0.579247 0.000000 
0.859882 0.643617 0.000000 
0.766865 0.641194 0.000000 
0.738388 0.587470 0.000000 
0.495877 0.505151 0.000000 
0.532292 0.481455 0.000000 
0.615911 0.506337 0.000000 
0.637658 0.580728 0.000000 
0.605251 0.629744 0.000000 
0.526268 0.635756 0.000000 
0.481031 0.588321 0.000000 
0.253243 0.580870 0.000000 
0.348114 0.562951 0.000000 
0.389622 0.611653 0.000000 
0.375366 0.668405 0.000000 
0.272279 0.696074 0.000000 
0.235042 0.650245 0.000000 
0.264530 0.143499 0.000000 
0.353906 0.101882 0.000000 
0.410209 0.138345 0.000000 
0.406351 0.222458 0.000000 
0.357279 0.250936 0.000000 
0.273190 0.210912 0.000000 
0.139229 0.912727 0.000000 
0.227432 0.875537 0.000000 
0.276003 0.911283 0.000000 
0.281073 1.000000 0.000000 
0.132405 1.000000 0.000000 
0.479811 0.259466 0.000000 
0.539648 0.226352 0.000000 
0.603143 0.257171 0.000000 
0.610842 0.348219 0.000000 
0.533907 0.382460 0.000000 
0.477245 0.348130 0.000000 
0.637940 0.878228 0.000000 
0.652005 0.858520 0.000000 
0.738755 0.851009 0.000000 
0.773176 0.892848 0.000000 
0.752491 1.000000 0.000000 
0.659789 1.000000 0.000000 
0.000000 0.119017 0.000000 
0.110765 0.109700 0.000000 
0.139955 0.139020 0.000000 
0.123724 0.229662 0.000000 
0.000000 0.228033 0.000000 
0.229562 0.000000 0.000000 
0.351996 0.000000 0.000000 
0.353906 0.101882 0.000000 
0.264530 0.143499 0.000000 
0.232179 0.120963 0.000000 
0.746251 0.262549 0.000000 
0.798157 0.225408 0.000000 
0.871357 0.244426 0.000000 
0.900400 0.296540 0.000000 
0.858756 0.370659 0.000000 
0.798409 0.375924 0.000000 
0.743548 0.322659 0.000000 
0.879805 0.000000 0.000000 
1.000000 0.000000 0.000000 
1.000000 0.147447 0.000000 
0.930519 0.150271 0.000000 
0.869762 0.096170 0.000000 
0.139955 0.139020 0.000000 
0.232179 0.120963 0.000000 
0.264530 0.143499 0.000000 
0.273190 0.210912 0.000000 
0.215782 0.268555 0.000000 
0.145438 0.261063 0.000000 
0.123724 0.229662 0.000000 
0.798409 0.375924 0.000000 
0.858756 0.370659 0.000000 
0.909098 0.440774 0.000000 
0.864312 0.516710 0.000000 
0.775707 0.507059 0.000000 
0.755644 0.470602 0.000000 
0.389622 0.611653 0.000000 
0.481031 0.588321 0.000000 
0.526268 0.635756 0.000000 
0.490581 0.738458 0.000000 
0.417571 0.733609 0.000000 
0.375366 0.668405 0.000000 
0.215782 0.268555 0.000000 
0.273190 0.210912 0.000000 
0.357279 0.250936 0.000000 
0.347363 0.333996 0.000000 
0.259648 0.361314 0.000000 
0.533962 0.895707 0.000000 
0.637940 0.878228 0.000000 
0.659789 1.000000 0.000000 
0.525314 1.000000 0.000000 
0.258307 0.443800 0.000000 
0.362088 0.478917 0.000000 
0.348114 0.562951 0.000000 
0.253243 0.580870 0.000000 
0.215411 0.527440 0.000000 
0.616780 0.765780 0.000000 
0.647615 0.717372 0.000000 
0.732860 0.713334 0.000000 
0.769867 0.771332 0.000000 
0.738755 0.851009 0.000000 
0.652005 0.858520 0.000000 
0.000000 0.000000 0.000000 
0.119461 0.000000 0.000000 
0.110765 0.109700 0.000000 
0.000000 0.119017 0.000000 
0.788149 0.129879 0.000000 
0.869762 0.096170 0.000000 
0.930519 0.150271 0.000000 
0.871357 0.244426 0.000000 
0.798157 0.225408 0.000000 
0.668934 0.138720 0.000000 
0.741837 0.103217 0.000000 
0.788149 0.129879 0.000000 
0.798157 0.225408 0.000000 
0.746251 0.262549 0.000000 
0.667690 0.218757 0.000000 
0.406569 0.882293 0.000000 
0.499066 0.861970 0.000000 
0.533962 0.895707 0.000000 
0.525314 1.000000 0.000000 
0.410180 1.000000 0.000000 
0.859882 0.643617 0.000000 
0.897444 0.579247 0.000000 
1.000000 0.581918 0.000000 
1.000000 0.716790 0.000000 
0.894278 0.717601 0.000000 
0.480872 0.000000 0.000000 
0.609924 0.000000 0.000000 
0.609577 0.102935 0.000000 
0.538063 0.137944 0.000000 
0.480790 0.104840 0.000000 
0.000000 0.729221 0.000000 
0.115474 0.736771 0.000000 
0.130645 0.764938 0.000000 
0.091084 0.864385 0.000000 
0.000000 0.870327 0.000000 
0.272279 0.696074 0.000000 
0.375366 0.668405 0.000000 
0.417571 0.733609 0.000000 
0.363406 0.809422 0.000000 
0.265455 0.761261 0.000000 
0.862735 0.767962 0.000000 
0.894278 0.717601 0.000000 
1.000000 0.716790 0.000000 
1.000000 0.855110 0.000000 
0.897262 0.857359 0.000000 
0.362088 0.478917 0.000000 
0.392175 0.457871 0.000000 
0.495877 0.505151 0.000000 
0.481031 0.588321 0.000000 
0.389622 0.611653 0.000000 
0.348114 0.562951 0.000000 
0.130645 0.764938 0.000000 
0.225566 0.793044 0.000000 
0.227432 0.875537 0.000000 
0.139229 0.912727 0.000000 
0.091084 0.864385 0.000000 
0.533907 0.382460 0.000000 
0.610842 0.348219 0.000000 
0.650310 0.369943 0.000000 
0.669350 0.450466 0.000000 
0.615911 0.506337 0.000000 
0.532292 0.481455 0.000000 
0.000000 0.475231 0.000000 
0.105179 0.474934 0.000000 
0.138698 0.526177 0.000000 
0.103125 0.603168 0.000000 
0.000000 0.606161 0.000000 
0.138698 0.526177 0.000000 
0.215411 0.527440 0.000000 
0.253243 0.580870 0.000000 
0.235042 0.650245 0.000000 
0.143200 0.663737 0.000000 
0.103125 0.603168 0.000000 
0.000000 0.606161 0.000000 
0.103125 0.603168 0.000000 
0.143200 0.663737 0.000000 
0.115474 0.736771 0.000000 
0.000000 0.729221 0.000000 
0.000000 0.346638 0.000000 
0.107203 0.350447 0.000000 
0.136154 0.398084 0.000000 
0.105179 0.474934 0.000000 
0.000000 0.475231 0.000000 
0.769867 0.771332 0.000000 
0.862735 0.767962 0.000000 
0.897262 0.857359 0.000000 
0.874328 0.887472 0.000000 
0.773176 0.892848 0.000000 
0.738755 0.851009 0.000000 
0.526268 0.635756 0.000000 
0.605251 0.629744 0.000000 
0.647615 0.717372 0.000000 
0.616780 0.765780 0.000000 
0.514991 0.768469 0.000000 
0.490581 0.738458 0.000000 
0.514991 0.768469 0.000000 
0.616780 0.765780 0.000000 
0.652005 0.858520 0.000000 
0.637940 0.878228 0.000000 
0.533962 0.895707 0.000000 
0.499066 0.861970 0.000000 
0.410209 0.138345 0.000000 
0.480790 0.104840 0.000000 
0.538063 0.137944 0.000000 
0.539648 0.226352 0.000000 
0.479811 0.259466 0.000000 
0.406351 0.222458 0.000000 
0.119461 0.000000 0.000000 
0.229562 0.000000 0.000000 
0.232179 0.120963 0.000000 
0.139955 0.139020 0.000000 
0.110765 0.109700 0.000000 
0.605251 0.629744 0.000000 
0.637658 0.580728 0.000000 
0.738388 0.587470 0.000000 
0.766865 0.641194 0.000000 
0.732860 0.713334 0.000000 
0.647615 0.717372 0.000000 
0.766865 0.641194 0.000000 
0.859882 0.643617 0.000000 
0.894278 0.717601 0.000000 
0.862735 0.767962 0.000000 
0.769867 0.771332 0.000000 
0.732860 0.713334 0.000000 
0.738035 0.000000 0.000000 
0.879805 0.000000 0.000000 
0.869762 0.096170 0.000000 
0.788149 0.129879 0.000000 
0.741837 0.103217 0.000000 
0.403010 0.380548 0.000000 
0.477245 0.348130 0.000000 
0.533907 0.382460 0.000000 
0.532292 0.481455 0.000000 
0.495877 0.505151 0.000000 
0.392175 0.457871 0.000000 
0.000000 0.228033 0.000000 
0.123724 0.229662 0.000000 
0.145438 0.261063 0.000000 
0.107203 0.350447 0.000000 
0.000000 0.346638 0.000000 
0.225566 0.793044 0.000000 
0.265455 0.761261 0.000000 
0.363406 0.809422 0.000000 
0.372600 0.858034 0.000000 
0.276003 0.911283 0.000000 
0.227432 0.875537 0.000000 
0.900400 0.296540 0.000000 
1.000000 0.301894 0.000000 
1.000000 0.439374 0.000000 
0.909098 0.440774 0.000000 
0.858756 0.370659 0.000000 
0.351996 0.000000 0.000000 
0.480872 0.000000 0.000000 
0.480790 0.104840 0.000000 
0.410209 0.138345 0.000000 
0.353906 0.101882 0.000000 
0.609924 0.000000 0.000000 
0.738035 0.000000 0.000000 
0.741837 0.103217 0.000000 
0.668934 0.138720 0.000000 
0.609577 0.102935 0.000000 
0.538063 0.137944 0.000000 
0.609577 0.102935 0.000000 
0.668934 0.138720 0.000000 
0.667690 0.218757 0.000000 
0.603143 0.257171 0.000000 
0.539648 0.226352 0.000000 
0.276003 0.911283 0.000000 
0.372600 0.858034 0.000000 
0.406569 0.882293 0.000000 
0.410180 1.000000 0.000000 
0.281073 1.000000 0.000000 
0.136154 0.398084 0.000000 
0.241650 0.398925 0.000000 
0.258307 0.443800 0.000000 
0.215411 0.527440 0.000000 
0.138698 0.526177 0.000000 
0.105179 0.474934 0.000000 
0.874328 0.887472 0.000000 
0.897262 0.857359 0.000000 
1.000000 0.855110 0.000000 
1.000000 1.000000 0.000000 
0.894295 1.000000 0.000000 
0.241650 0.398925 0.000000 
0.259648 0.361314 0.000000 
0.347363 0.333996 0.000000 
0.403010 0.380548 0.000000 
0.392175 0.457871 0.000000 
0.362088 0.478917 0.000000 
0.258307 0.443800 0.000000 
0.143200 0.663737 0.000000 
0.235042 0.650245 0.000000 
0.272279 0.696074 0.000000 
0.265455 0.761261 0.000000 
0.225566 0.793044 0.000000 
0.130645 0.764938 0.000000 
0.115474 0.736771 0.000000 
0.145438 0.261063 0.000000 
0.215782 0.268555 0.000000 
0.259648 0.361314 0.000000 
0.241650 0.398925 0.000000 
0.136154 0.398084 0.000000 
0.107203 0.350447 0.000000 
CELLS 64 419 
 5 0 1 2 3 4  
 6 5 6 7 8 9 10  
 5 11 12 13 14 15  
 6 16 17 18 19 20 21  
 4 22 23 24 25  
 5 26 27 28 29 30  
 6 31 32 33 34 35 36  
 7 37 38 39 40 41 42 43  
 5 44 45 46 47 48  
 6 49 50 51 52 53 54  
 7 55 56 57 58 59 60 61  
 6 62 63 64 65 66 67  
 6 68 69 70 71 72 73  
 5 74 75 76 77 78  
 6 79 80 81 82 83 84  
 6 85 86 87 88 89 90  
 5 91 92 93 94 95  
 5 96 97 98 99 100  
 7 101 102 103 104 105 106 107  
 5 108 109 110 111 112  
 7 113 114 115 116 117 118 119  
 6 120 121 122 123 124 125  
 6 126 127 128 129 130 131  
 5 132 133 134 135 136  
 4 137 138 139 140  
 5 141 142 143 144 145  
 6 146 147 148 149 150 151  
 4 152 153 154 155  
 5 156 157 158 159 160  
 6 161 162 163 164 165 166  
 5 167 168 169 170 171  
 5 172 173 174 175 176  
 5 177 178 179 180 181  
 5 182 183 184 185 186  
 5 187 188 189 190 191  
 5 192 193 194 195 196  
 6 197 198 199 200 201 202  
 5 203 204 205 206 207  
 6 208 209 210 211 212 213  
 5 214 215 216 217 218  
 6 219 220 221 222 223 224  
 5 225 226 227 228 229  
 5 230 231 232 233 234  
 6 235 236 237 238 239 240  
 6 241 242 243 244 245 246  
 6 247 248 249 250 251 252  
 6 253 254 255 256 257 258  
 5 259 260 261 262 263  
 6 264 265 266 267 268 269  
 6 270 271 272 273 274 275  
 5 276 277 278 279 280  
 6 281 282 283 284 285 286  
 5 287 288 289 290 291  
 6 292 293 294 295 296 297  
 5 298 299 300 301 302  
 5 303 304 305 306 307  
 5 308 309 310 311 312  
 6 313 314 315 316 317 318  
 5 319 320 321 322 323  
 6 324 325 326 327 328 329  
 5 330 331 332 333 334  
 7 335 336 337 338 339 340 341  
 7 342 343 344 345 346 347 348  
 6 349 350 351 352 353 354  
 
CELL_TYPES 64
7
7
7
7
7
7
7
7
7
7
7
7
7
7
7
7
7
7
7
7
7
7
7
7
7
7
7
7
7
7
7
7
7
7
7
7
7
7
7
7
7
7
7
7
7
7
7
7
7
7
7
7
7
7
7
7
7
7
7
7
7
7
7
7
CELL_DATA 64
FIELD FieldData 1
material 1 64 int
1
1
1
1
1
1
1
1
1
1
1
1
1
1
1
1
1
1
1
1
1
1
1
1
1
1
1
1
1
1
1
1
1
1
1
1
1
1
1
1
1
1
1
1
1
1
1
1
1
1
1
1
1
1
1
1
1
1
1
1
1
1
1
1
POINT_DATA 355 SCALARS flux_g1 double 
LOOKUP_TABLE   default 
-0.000000
0.000000
-0.000000
-0.000000
-0.000000
-0.000001
-0.000000
-0.000000
0.000000
0.000000
-0.000000
0.000000
-0.000000
0.000000
-0.000000
-0.000000
0.000068
-0.000001
0.000004
-0.000001
0.000081
-0.000084
-0.000000
0.000000
-0.000000
0.000001
1.074561
-0.027872
0.053818
-0.271969
0.483504
-0.000000
-0.000000
-0.000000
0.000000
-0.000000
-0.000000
-0.000099
0.000022
0.000066
-0.000045
0.000603
0.000939
-0.000468
0.000000
-0.000000
0.000000
-0.000000
-0.000000
0.000000
0.000000
-0.000000
-0.000000
-0.000000
0.000000
0.000010
0.000000
-0.000001
-0.000001
0.000001
-0.000006
-0.000015
0.000085
-0.000308
0.000243
0.000101
0.002654
-0.005270
0.000372
0.000039
0.000015
-0.000043
-0.000302
0.000708
-0.025845
-0.003197
-0.008397
0.026056
-0.080286
0.000002
0.000000
0.000000
-0.000000
-0.000000
-0.000002
0.000009
0.000003
-0.000000
-0.000001
0.000001
-0.000012
0.913318
-0.073583
0.085668
-0.177526
0.887381
0.002475
-0.000842
0.000328
-0.001620
-0.004969
-0.000000
0.000000
-0.000000
0.000000
-0.000000
-0.000000
0.000000
-0.000000
0.000000
-0.000000
0.000000
0.000000
0.016383
-0.010180
-0.000312
0.002426
-0.007919
0.062943
-0.147536
-0.000000
-0.000000
0.000000
0.000000
0.000000
-0.000000
0.000103
-0.000019
-0.000004
-0.000008
-0.000088
-0.000083
-0.002494
-0.000317
0.000193
-0.000197
0.002429
-0.000016
0.000013
-0.000018
0.000079
0.000224
0.000053
-0.000394
0.002689
-0.002064
-0.000010
-0.000002
-0.000000
0.000000
0.000001
0.000005
0.904103
-0.047452
-0.055169
0.928122
-0.000000
-0.000000
-0.000000
0.000000
-0.000000
0.000000
-0.000000
-0.000000
-0.000000
-0.000000
-0.000000
0.000305
-0.000087
-0.000103
0.000215
-0.001060
0.000000
-0.000000
0.000000
-0.000000
0.000000
0.000036
-0.000008
0.000001
-0.000005
-0.000008
0.927234
-0.112095
0.081147
-0.125994
1.057083
0.001898
-0.000133
-0.000043
-0.001243
0.001082
-0.000000
-0.000000
-0.000000
0.000000
0.000000
-0.000010
-0.000038
0.000011
-0.000003
0.000228
-0.000363
0.008272
-0.001884
-0.006058
0.040662
-0.052516
-0.000001
-0.000000
-0.000000
0.000000
0.000000
-0.000002
0.932914
-0.037978
0.043967
-0.165243
0.965106
-0.009495
-0.001515
0.003704
-0.008062
0.043815
-0.047179
0.924793
-0.022175
0.047301
-0.205817
0.933170
0.933495
-0.050673
0.056758
-0.164914
0.965275
0.000000
-0.000000
-0.000000
0.000000
-0.000001
0.000000
-0.000006
0.000002
0.000001
-0.000012
0.000050
0.000009
0.000029
-0.000011
0.000003
0.000026
-0.000065
-0.000073
0.000000
-0.000002
-0.000000
0.000001
0.000011
-0.000020
-0.030879
0.004052
-0.002442
0.057859
-0.061276
0.000002
0.000000
0.000000
-0.000000
-0.000001
0.000000
-0.000000
0.000000
0.000000
-0.000000
0.000001
-0.000000
0.000000
-0.000000
0.000000
-0.000000
-0.000000
0.000048
-0.000002
0.000000
-0.000004
-0.000005
-0.000013
0.885110
-0.109708
0.060157
-0.171346
0.961090
-0.001612
-0.000564
-0.000505
0.000902
-0.004075
-0.004708
-0.000000
0.000000
-0.000000
0.000000
-0.000000
-0.000346
0.000079
-0.000010
0.000020
0.000209
-0.000003
0.000001
-0.000000
0.000001
0.000001
0.000000
0.000000
0.000000
-0.000000
-0.000000
0.000000
0.000227
0.000286
0.001199
-0.002264
0.009709
-0.005047
-0.001908
0.004072
-0.006047
0.045163
-0.065964
0.000000
0.000000
-0.000000
0.000000
-0.000000
-0.002487
-0.000437
0.000038
0.000054
0.000078
-0.000673
0.002749
-0.008994
-0.003157
0.001511
0.006150
-0.010403
0.076903
-0.123017
-0.002020
-0.003819
0.003643
-0.011251
0.050456
-0.076433
 
