# vtk DataFile Version 3.0 
Date: 6/2/2016   Time: 7:54
ASCII 
DATASET UNSTRUCTURED_GRID 
 
POINTS 480 float 
0.000000 0.000000 0.000000 
0.000200 0.000000 0.000000 
0.000200 1.000000 0.000000 
0.000000 1.000000 0.000000 
0.000200 0.000000 0.000000 
0.000400 0.000000 0.000000 
0.000400 1.000000 0.000000 
0.000200 1.000000 0.000000 
0.000400 0.000000 0.000000 
0.000600 0.000000 0.000000 
0.000600 1.000000 0.000000 
0.000400 1.000000 0.000000 
0.000600 0.000000 0.000000 
0.000800 0.000000 0.000000 
0.000800 1.000000 0.000000 
0.000600 1.000000 0.000000 
0.000800 0.000000 0.000000 
0.001000 0.000000 0.000000 
0.001000 1.000000 0.000000 
0.000800 1.000000 0.000000 
0.001000 0.000000 0.000000 
0.001200 0.000000 0.000000 
0.001200 1.000000 0.000000 
0.001000 1.000000 0.000000 
0.001200 0.000000 0.000000 
0.001400 0.000000 0.000000 
0.001400 1.000000 0.000000 
0.001200 1.000000 0.000000 
0.001400 0.000000 0.000000 
0.001600 0.000000 0.000000 
0.001600 1.000000 0.000000 
0.001400 1.000000 0.000000 
0.001600 0.000000 0.000000 
0.001800 0.000000 0.000000 
0.001800 1.000000 0.000000 
0.001600 1.000000 0.000000 
0.001800 0.000000 0.000000 
0.002000 0.000000 0.000000 
0.002000 1.000000 0.000000 
0.001800 1.000000 0.000000 
0.002000 0.000000 0.000000 
0.002200 0.000000 0.000000 
0.002200 1.000000 0.000000 
0.002000 1.000000 0.000000 
0.002200 0.000000 0.000000 
0.002400 0.000000 0.000000 
0.002400 1.000000 0.000000 
0.002200 1.000000 0.000000 
0.002400 0.000000 0.000000 
0.002600 0.000000 0.000000 
0.002600 1.000000 0.000000 
0.002400 1.000000 0.000000 
0.002600 0.000000 0.000000 
0.002800 0.000000 0.000000 
0.002800 1.000000 0.000000 
0.002600 1.000000 0.000000 
0.002800 0.000000 0.000000 
0.003000 0.000000 0.000000 
0.003000 1.000000 0.000000 
0.002800 1.000000 0.000000 
0.003000 0.000000 0.000000 
0.003200 0.000000 0.000000 
0.003200 1.000000 0.000000 
0.003000 1.000000 0.000000 
0.003200 0.000000 0.000000 
0.003400 0.000000 0.000000 
0.003400 1.000000 0.000000 
0.003200 1.000000 0.000000 
0.003400 0.000000 0.000000 
0.003600 0.000000 0.000000 
0.003600 1.000000 0.000000 
0.003400 1.000000 0.000000 
0.003600 0.000000 0.000000 
0.003800 0.000000 0.000000 
0.003800 1.000000 0.000000 
0.003600 1.000000 0.000000 
0.003800 0.000000 0.000000 
0.004000 0.000000 0.000000 
0.004000 1.000000 0.000000 
0.003800 1.000000 0.000000 
0.004000 0.000000 0.000000 
0.004200 0.000000 0.000000 
0.004200 1.000000 0.000000 
0.004000 1.000000 0.000000 
0.004200 0.000000 0.000000 
0.004400 0.000000 0.000000 
0.004400 1.000000 0.000000 
0.004200 1.000000 0.000000 
0.004400 0.000000 0.000000 
0.004600 0.000000 0.000000 
0.004600 1.000000 0.000000 
0.004400 1.000000 0.000000 
0.004600 0.000000 0.000000 
0.004800 0.000000 0.000000 
0.004800 1.000000 0.000000 
0.004600 1.000000 0.000000 
0.004800 0.000000 0.000000 
0.005000 0.000000 0.000000 
0.005000 1.000000 0.000000 
0.004800 1.000000 0.000000 
0.005000 0.000000 0.000000 
0.005200 0.000000 0.000000 
0.005200 1.000000 0.000000 
0.005000 1.000000 0.000000 
0.005200 0.000000 0.000000 
0.005400 0.000000 0.000000 
0.005400 1.000000 0.000000 
0.005200 1.000000 0.000000 
0.005400 0.000000 0.000000 
0.005600 0.000000 0.000000 
0.005600 1.000000 0.000000 
0.005400 1.000000 0.000000 
0.005600 0.000000 0.000000 
0.005800 0.000000 0.000000 
0.005800 1.000000 0.000000 
0.005600 1.000000 0.000000 
0.005800 0.000000 0.000000 
0.006000 0.000000 0.000000 
0.006000 1.000000 0.000000 
0.005800 1.000000 0.000000 
0.006000 0.000000 0.000000 
0.006200 0.000000 0.000000 
0.006200 1.000000 0.000000 
0.006000 1.000000 0.000000 
0.006200 0.000000 0.000000 
0.006400 0.000000 0.000000 
0.006400 1.000000 0.000000 
0.006200 1.000000 0.000000 
0.006400 0.000000 0.000000 
0.006600 0.000000 0.000000 
0.006600 1.000000 0.000000 
0.006400 1.000000 0.000000 
0.006600 0.000000 0.000000 
0.006800 0.000000 0.000000 
0.006800 1.000000 0.000000 
0.006600 1.000000 0.000000 
0.006800 0.000000 0.000000 
0.007000 0.000000 0.000000 
0.007000 1.000000 0.000000 
0.006800 1.000000 0.000000 
0.007000 0.000000 0.000000 
0.007200 0.000000 0.000000 
0.007200 1.000000 0.000000 
0.007000 1.000000 0.000000 
0.007200 0.000000 0.000000 
0.007400 0.000000 0.000000 
0.007400 1.000000 0.000000 
0.007200 1.000000 0.000000 
0.007400 0.000000 0.000000 
0.007600 0.000000 0.000000 
0.007600 1.000000 0.000000 
0.007400 1.000000 0.000000 
0.007600 0.000000 0.000000 
0.007800 0.000000 0.000000 
0.007800 1.000000 0.000000 
0.007600 1.000000 0.000000 
0.007800 0.000000 0.000000 
0.008000 0.000000 0.000000 
0.008000 1.000000 0.000000 
0.007800 1.000000 0.000000 
0.008000 0.000000 0.000000 
0.008200 0.000000 0.000000 
0.008200 1.000000 0.000000 
0.008000 1.000000 0.000000 
0.008200 0.000000 0.000000 
0.008400 0.000000 0.000000 
0.008400 1.000000 0.000000 
0.008200 1.000000 0.000000 
0.008400 0.000000 0.000000 
0.008600 0.000000 0.000000 
0.008600 1.000000 0.000000 
0.008400 1.000000 0.000000 
0.008600 0.000000 0.000000 
0.008800 0.000000 0.000000 
0.008800 1.000000 0.000000 
0.008600 1.000000 0.000000 
0.008800 0.000000 0.000000 
0.009000 0.000000 0.000000 
0.009000 1.000000 0.000000 
0.008800 1.000000 0.000000 
0.009000 0.000000 0.000000 
0.009200 0.000000 0.000000 
0.009200 1.000000 0.000000 
0.009000 1.000000 0.000000 
0.009200 0.000000 0.000000 
0.009400 0.000000 0.000000 
0.009400 1.000000 0.000000 
0.009200 1.000000 0.000000 
0.009400 0.000000 0.000000 
0.009600 0.000000 0.000000 
0.009600 1.000000 0.000000 
0.009400 1.000000 0.000000 
0.009600 0.000000 0.000000 
0.009800 0.000000 0.000000 
0.009800 1.000000 0.000000 
0.009600 1.000000 0.000000 
0.009800 0.000000 0.000000 
0.010000 0.000000 0.000000 
0.010000 1.000000 0.000000 
0.009800 1.000000 0.000000 
0.010000 0.000000 0.000000 
0.011800 0.000000 0.000000 
0.011800 1.000000 0.000000 
0.010000 1.000000 0.000000 
0.011800 0.000000 0.000000 
0.013600 0.000000 0.000000 
0.013600 1.000000 0.000000 
0.011800 1.000000 0.000000 
0.013600 0.000000 0.000000 
0.015400 0.000000 0.000000 
0.015400 1.000000 0.000000 
0.013600 1.000000 0.000000 
0.015400 0.000000 0.000000 
0.017200 0.000000 0.000000 
0.017200 1.000000 0.000000 
0.015400 1.000000 0.000000 
0.017200 0.000000 0.000000 
0.019000 0.000000 0.000000 
0.019000 1.000000 0.000000 
0.017200 1.000000 0.000000 
0.019000 0.000000 0.000000 
0.020800 0.000000 0.000000 
0.020800 1.000000 0.000000 
0.019000 1.000000 0.000000 
0.020800 0.000000 0.000000 
0.022600 0.000000 0.000000 
0.022600 1.000000 0.000000 
0.020800 1.000000 0.000000 
0.022600 0.000000 0.000000 
0.024400 0.000000 0.000000 
0.024400 1.000000 0.000000 
0.022600 1.000000 0.000000 
0.024400 0.000000 0.000000 
0.026200 0.000000 0.000000 
0.026200 1.000000 0.000000 
0.024400 1.000000 0.000000 
0.026200 0.000000 0.000000 
0.028000 0.000000 0.000000 
0.028000 1.000000 0.000000 
0.026200 1.000000 0.000000 
0.028000 0.000000 0.000000 
0.029800 0.000000 0.000000 
0.029800 1.000000 0.000000 
0.028000 1.000000 0.000000 
0.029800 0.000000 0.000000 
0.031600 0.000000 0.000000 
0.031600 1.000000 0.000000 
0.029800 1.000000 0.000000 
0.031600 0.000000 0.000000 
0.033400 0.000000 0.000000 
0.033400 1.000000 0.000000 
0.031600 1.000000 0.000000 
0.033400 0.000000 0.000000 
0.035200 0.000000 0.000000 
0.035200 1.000000 0.000000 
0.033400 1.000000 0.000000 
0.035200 0.000000 0.000000 
0.037000 0.000000 0.000000 
0.037000 1.000000 0.000000 
0.035200 1.000000 0.000000 
0.037000 0.000000 0.000000 
0.038800 0.000000 0.000000 
0.038800 1.000000 0.000000 
0.037000 1.000000 0.000000 
0.038800 0.000000 0.000000 
0.040600 0.000000 0.000000 
0.040600 1.000000 0.000000 
0.038800 1.000000 0.000000 
0.040600 0.000000 0.000000 
0.042400 0.000000 0.000000 
0.042400 1.000000 0.000000 
0.040600 1.000000 0.000000 
0.042400 0.000000 0.000000 
0.044200 0.000000 0.000000 
0.044200 1.000000 0.000000 
0.042400 1.000000 0.000000 
0.044200 0.000000 0.000000 
0.046000 0.000000 0.000000 
0.046000 1.000000 0.000000 
0.044200 1.000000 0.000000 
0.046000 0.000000 0.000000 
0.047800 0.000000 0.000000 
0.047800 1.000000 0.000000 
0.046000 1.000000 0.000000 
0.047800 0.000000 0.000000 
0.049600 0.000000 0.000000 
0.049600 1.000000 0.000000 
0.047800 1.000000 0.000000 
0.049600 0.000000 0.000000 
0.051400 0.000000 0.000000 
0.051400 1.000000 0.000000 
0.049600 1.000000 0.000000 
0.051400 0.000000 0.000000 
0.053200 0.000000 0.000000 
0.053200 1.000000 0.000000 
0.051400 1.000000 0.000000 
0.053200 0.000000 0.000000 
0.055000 0.000000 0.000000 
0.055000 1.000000 0.000000 
0.053200 1.000000 0.000000 
0.055000 0.000000 0.000000 
0.056800 0.000000 0.000000 
0.056800 1.000000 0.000000 
0.055000 1.000000 0.000000 
0.056800 0.000000 0.000000 
0.058600 0.000000 0.000000 
0.058600 1.000000 0.000000 
0.056800 1.000000 0.000000 
0.058600 0.000000 0.000000 
0.060400 0.000000 0.000000 
0.060400 1.000000 0.000000 
0.058600 1.000000 0.000000 
0.060400 0.000000 0.000000 
0.062200 0.000000 0.000000 
0.062200 1.000000 0.000000 
0.060400 1.000000 0.000000 
0.062200 0.000000 0.000000 
0.064000 0.000000 0.000000 
0.064000 1.000000 0.000000 
0.062200 1.000000 0.000000 
0.064000 0.000000 0.000000 
0.065800 0.000000 0.000000 
0.065800 1.000000 0.000000 
0.064000 1.000000 0.000000 
0.065800 0.000000 0.000000 
0.067600 0.000000 0.000000 
0.067600 1.000000 0.000000 
0.065800 1.000000 0.000000 
0.067600 0.000000 0.000000 
0.069400 0.000000 0.000000 
0.069400 1.000000 0.000000 
0.067600 1.000000 0.000000 
0.069400 0.000000 0.000000 
0.071200 0.000000 0.000000 
0.071200 1.000000 0.000000 
0.069400 1.000000 0.000000 
0.071200 0.000000 0.000000 
0.073000 0.000000 0.000000 
0.073000 1.000000 0.000000 
0.071200 1.000000 0.000000 
0.073000 0.000000 0.000000 
0.074800 0.000000 0.000000 
0.074800 1.000000 0.000000 
0.073000 1.000000 0.000000 
0.074800 0.000000 0.000000 
0.076600 0.000000 0.000000 
0.076600 1.000000 0.000000 
0.074800 1.000000 0.000000 
0.076600 0.000000 0.000000 
0.078400 0.000000 0.000000 
0.078400 1.000000 0.000000 
0.076600 1.000000 0.000000 
0.078400 0.000000 0.000000 
0.080200 0.000000 0.000000 
0.080200 1.000000 0.000000 
0.078400 1.000000 0.000000 
0.080200 0.000000 0.000000 
0.082000 0.000000 0.000000 
0.082000 1.000000 0.000000 
0.080200 1.000000 0.000000 
0.082000 0.000000 0.000000 
0.083800 0.000000 0.000000 
0.083800 1.000000 0.000000 
0.082000 1.000000 0.000000 
0.083800 0.000000 0.000000 
0.085600 0.000000 0.000000 
0.085600 1.000000 0.000000 
0.083800 1.000000 0.000000 
0.085600 0.000000 0.000000 
0.087400 0.000000 0.000000 
0.087400 1.000000 0.000000 
0.085600 1.000000 0.000000 
0.087400 0.000000 0.000000 
0.089200 0.000000 0.000000 
0.089200 1.000000 0.000000 
0.087400 1.000000 0.000000 
0.089200 0.000000 0.000000 
0.091000 0.000000 0.000000 
0.091000 1.000000 0.000000 
0.089200 1.000000 0.000000 
0.091000 0.000000 0.000000 
0.092800 0.000000 0.000000 
0.092800 1.000000 0.000000 
0.091000 1.000000 0.000000 
0.092800 0.000000 0.000000 
0.094600 0.000000 0.000000 
0.094600 1.000000 0.000000 
0.092800 1.000000 0.000000 
0.094600 0.000000 0.000000 
0.096400 0.000000 0.000000 
0.096400 1.000000 0.000000 
0.094600 1.000000 0.000000 
0.096400 0.000000 0.000000 
0.098200 0.000000 0.000000 
0.098200 1.000000 0.000000 
0.096400 1.000000 0.000000 
0.098200 0.000000 0.000000 
0.100000 0.000000 0.000000 
0.100000 1.000000 0.000000 
0.098200 1.000000 0.000000 
0.100000 0.000000 0.000000 
0.145000 0.000000 0.000000 
0.145000 1.000000 0.000000 
0.100000 1.000000 0.000000 
0.145000 0.000000 0.000000 
0.190000 0.000000 0.000000 
0.190000 1.000000 0.000000 
0.145000 1.000000 0.000000 
0.190000 0.000000 0.000000 
0.235000 0.000000 0.000000 
0.235000 1.000000 0.000000 
0.190000 1.000000 0.000000 
0.235000 0.000000 0.000000 
0.280000 0.000000 0.000000 
0.280000 1.000000 0.000000 
0.235000 1.000000 0.000000 
0.280000 0.000000 0.000000 
0.325000 0.000000 0.000000 
0.325000 1.000000 0.000000 
0.280000 1.000000 0.000000 
0.325000 0.000000 0.000000 
0.370000 0.000000 0.000000 
0.370000 1.000000 0.000000 
0.325000 1.000000 0.000000 
0.370000 0.000000 0.000000 
0.415000 0.000000 0.000000 
0.415000 1.000000 0.000000 
0.370000 1.000000 0.000000 
0.415000 0.000000 0.000000 
0.460000 0.000000 0.000000 
0.460000 1.000000 0.000000 
0.415000 1.000000 0.000000 
0.460000 0.000000 0.000000 
0.505000 0.000000 0.000000 
0.505000 1.000000 0.000000 
0.460000 1.000000 0.000000 
0.505000 0.000000 0.000000 
0.550000 0.000000 0.000000 
0.550000 1.000000 0.000000 
0.505000 1.000000 0.000000 
0.550000 0.000000 0.000000 
0.595000 0.000000 0.000000 
0.595000 1.000000 0.000000 
0.550000 1.000000 0.000000 
0.595000 0.000000 0.000000 
0.640000 0.000000 0.000000 
0.640000 1.000000 0.000000 
0.595000 1.000000 0.000000 
0.640000 0.000000 0.000000 
0.685000 0.000000 0.000000 
0.685000 1.000000 0.000000 
0.640000 1.000000 0.000000 
0.685000 0.000000 0.000000 
0.730000 0.000000 0.000000 
0.730000 1.000000 0.000000 
0.685000 1.000000 0.000000 
0.730000 0.000000 0.000000 
0.775000 0.000000 0.000000 
0.775000 1.000000 0.000000 
0.730000 1.000000 0.000000 
0.775000 0.000000 0.000000 
0.820000 0.000000 0.000000 
0.820000 1.000000 0.000000 
0.775000 1.000000 0.000000 
0.820000 0.000000 0.000000 
0.865000 0.000000 0.000000 
0.865000 1.000000 0.000000 
0.820000 1.000000 0.000000 
0.865000 0.000000 0.000000 
0.910000 0.000000 0.000000 
0.910000 1.000000 0.000000 
0.865000 1.000000 0.000000 
0.910000 0.000000 0.000000 
0.955000 0.000000 0.000000 
0.955000 1.000000 0.000000 
0.910000 1.000000 0.000000 
0.955000 0.000000 0.000000 
1.000000 0.000000 0.000000 
1.000000 1.000000 0.000000 
0.955000 1.000000 0.000000 
CELLS 120 600 
 4 0 1 2 3  
 4 4 5 6 7  
 4 8 9 10 11  
 4 12 13 14 15  
 4 16 17 18 19  
 4 20 21 22 23  
 4 24 25 26 27  
 4 28 29 30 31  
 4 32 33 34 35  
 4 36 37 38 39  
 4 40 41 42 43  
 4 44 45 46 47  
 4 48 49 50 51  
 4 52 53 54 55  
 4 56 57 58 59  
 4 60 61 62 63  
 4 64 65 66 67  
 4 68 69 70 71  
 4 72 73 74 75  
 4 76 77 78 79  
 4 80 81 82 83  
 4 84 85 86 87  
 4 88 89 90 91  
 4 92 93 94 95  
 4 96 97 98 99  
 4 100 101 102 103  
 4 104 105 106 107  
 4 108 109 110 111  
 4 112 113 114 115  
 4 116 117 118 119  
 4 120 121 122 123  
 4 124 125 126 127  
 4 128 129 130 131  
 4 132 133 134 135  
 4 136 137 138 139  
 4 140 141 142 143  
 4 144 145 146 147  
 4 148 149 150 151  
 4 152 153 154 155  
 4 156 157 158 159  
 4 160 161 162 163  
 4 164 165 166 167  
 4 168 169 170 171  
 4 172 173 174 175  
 4 176 177 178 179  
 4 180 181 182 183  
 4 184 185 186 187  
 4 188 189 190 191  
 4 192 193 194 195  
 4 196 197 198 199  
 4 200 201 202 203  
 4 204 205 206 207  
 4 208 209 210 211  
 4 212 213 214 215  
 4 216 217 218 219  
 4 220 221 222 223  
 4 224 225 226 227  
 4 228 229 230 231  
 4 232 233 234 235  
 4 236 237 238 239  
 4 240 241 242 243  
 4 244 245 246 247  
 4 248 249 250 251  
 4 252 253 254 255  
 4 256 257 258 259  
 4 260 261 262 263  
 4 264 265 266 267  
 4 268 269 270 271  
 4 272 273 274 275  
 4 276 277 278 279  
 4 280 281 282 283  
 4 284 285 286 287  
 4 288 289 290 291  
 4 292 293 294 295  
 4 296 297 298 299  
 4 300 301 302 303  
 4 304 305 306 307  
 4 308 309 310 311  
 4 312 313 314 315  
 4 316 317 318 319  
 4 320 321 322 323  
 4 324 325 326 327  
 4 328 329 330 331  
 4 332 333 334 335  
 4 336 337 338 339  
 4 340 341 342 343  
 4 344 345 346 347  
 4 348 349 350 351  
 4 352 353 354 355  
 4 356 357 358 359  
 4 360 361 362 363  
 4 364 365 366 367  
 4 368 369 370 371  
 4 372 373 374 375  
 4 376 377 378 379  
 4 380 381 382 383  
 4 384 385 386 387  
 4 388 389 390 391  
 4 392 393 394 395  
 4 396 397 398 399  
 4 400 401 402 403  
 4 404 405 406 407  
 4 408 409 410 411  
 4 412 413 414 415  
 4 416 417 418 419  
 4 420 421 422 423  
 4 424 425 426 427  
 4 428 429 430 431  
 4 432 433 434 435  
 4 436 437 438 439  
 4 440 441 442 443  
 4 444 445 446 447  
 4 448 449 450 451  
 4 452 453 454 455  
 4 456 457 458 459  
 4 460 461 462 463  
 4 464 465 466 467  
 4 468 469 470 471  
 4 472 473 474 475  
 4 476 477 478 479  
 
CELL_TYPES 120
7
7
7
7
7
7
7
7
7
7
7
7
7
7
7
7
7
7
7
7
7
7
7
7
7
7
7
7
7
7
7
7
7
7
7
7
7
7
7
7
7
7
7
7
7
7
7
7
7
7
7
7
7
7
7
7
7
7
7
7
7
7
7
7
7
7
7
7
7
7
7
7
7
7
7
7
7
7
7
7
7
7
7
7
7
7
7
7
7
7
7
7
7
7
7
7
7
7
7
7
7
7
7
7
7
7
7
7
7
7
7
7
7
7
7
7
7
7
7
7
CELL_DATA 120
FIELD FieldData 1
material 1 120 int
1
1
1
1
1
1
1
1
1
1
1
1
1
1
1
1
1
1
1
1
1
1
1
1
1
1
1
1
1
1
1
1
1
1
1
1
1
1
1
1
1
1
1
1
1
1
1
1
1
1
1
1
1
1
1
1
1
1
1
1
1
1
1
1
1
1
1
1
1
1
1
1
1
1
1
1
1
1
1
1
1
1
1
1
1
1
1
1
1
1
1
1
1
1
1
1
1
1
1
1
1
1
1
1
1
1
1
1
1
1
1
1
1
1
1
1
1
1
1
1
POINT_DATA 480 SCALARS flux_g1 double 
LOOKUP_TABLE   default 
1.58040308e-01
1.34837736e-02
1.34837736e-02
1.58040308e-01
1.63003914e-02
1.48293940e-02
1.48293940e-02
1.63003914e-02
1.47935572e-02
1.40564738e-02
1.40564738e-02
1.47935572e-02
1.40379865e-02
1.36001673e-02
1.36001673e-02
1.40379865e-02
1.35903587e-02
1.33080027e-02
1.33080027e-02
1.35903587e-02
1.33023522e-02
1.31082877e-02
1.31082877e-02
1.33023522e-02
1.31047929e-02
1.29649761e-02
1.29649761e-02
1.31047929e-02
1.29626878e-02
1.28583892e-02
1.28583892e-02
1.29626878e-02
1.28568233e-02
1.27769426e-02
1.27769426e-02
1.28568233e-02
1.27758341e-02
1.27133717e-02
1.27133717e-02
1.27758341e-02
1.27125657e-02
1.26628858e-02
1.26628858e-02
1.27125657e-02
1.26622869e-02
1.26221990e-02
1.26221990e-02
1.26622869e-02
1.26217461e-02
1.25889873e-02
1.25889873e-02
1.26217461e-02
1.25886395e-02
1.25615652e-02
1.25615652e-02
1.25886395e-02
1.25612947e-02
1.25386854e-02
1.25386854e-02
1.25612947e-02
1.25384726e-02
1.25194086e-02
1.25194086e-02
1.25384726e-02
1.25192396e-02
1.25030170e-02
1.25030170e-02
1.25192396e-02
1.25028817e-02
1.24889552e-02
1.24889552e-02
1.25028817e-02
1.24888460e-02
1.24767884e-02
1.24767884e-02
1.24888460e-02
1.24766996e-02
1.24661728e-02
1.24661728e-02
1.24766996e-02
1.24661002e-02
1.24568344e-02
1.24568344e-02
1.24661002e-02
1.24567748e-02
1.24485531e-02
1.24485531e-02
1.24567748e-02
1.24485039e-02
1.24411508e-02
1.24411508e-02
1.24485039e-02
1.24411099e-02
1.24344823e-02
1.24344823e-02
1.24411099e-02
1.24344483e-02
1.24284290e-02
1.24284290e-02
1.24344483e-02
1.24284006e-02
1.24228932e-02
1.24228932e-02
1.24284006e-02
1.24228693e-02
1.24177939e-02
1.24177939e-02
1.24228693e-02
1.24177738e-02
1.24130641e-02
1.24130641e-02
1.24177738e-02
1.24130471e-02
1.24086479e-02
1.24086479e-02
1.24130471e-02
1.24086336e-02
1.24044985e-02
1.24044985e-02
1.24086336e-02
1.24044863e-02
1.24005766e-02
1.24005766e-02
1.24044863e-02
1.24005662e-02
1.23968491e-02
1.23968491e-02
1.24005662e-02
1.23968402e-02
1.23932881e-02
1.23932881e-02
1.23968402e-02
1.23932805e-02
1.23898699e-02
1.23898699e-02
1.23932805e-02
1.23898634e-02
1.23865745e-02
1.23865745e-02
1.23898634e-02
1.23865689e-02
1.23833847e-02
1.23833847e-02
1.23865689e-02
1.23833799e-02
1.23802861e-02
1.23802861e-02
1.23833799e-02
1.23802820e-02
1.23772662e-02
1.23772662e-02
1.23802820e-02
1.23772627e-02
1.23743144e-02
1.23743144e-02
1.23772627e-02
1.23743113e-02
1.23714214e-02
1.23714214e-02
1.23743113e-02
1.23714188e-02
1.23685795e-02
1.23685795e-02
1.23714188e-02
1.23685773e-02
1.23657820e-02
1.23657820e-02
1.23685773e-02
1.23657800e-02
1.23630230e-02
1.23630230e-02
1.23657800e-02
1.23630213e-02
1.23602975e-02
1.23602975e-02
1.23630213e-02
1.23602960e-02
1.23576011e-02
1.23576011e-02
1.23602960e-02
1.23575998e-02
1.23549301e-02
1.23549301e-02
1.23575998e-02
1.23549290e-02
1.23522812e-02
1.23522812e-02
1.23549290e-02
1.23522802e-02
1.23496516e-02
1.23496516e-02
1.23522802e-02
1.23496507e-02
1.23470387e-02
1.23470387e-02
1.23496507e-02
1.23470379e-02
1.23444392e-02
1.23444392e-02
1.23470379e-02
1.23443877e-02
1.23214663e-02
1.23214663e-02
1.23443877e-02
1.23214690e-02
1.22988954e-02
1.22988954e-02
1.23214690e-02
1.22988961e-02
1.22764312e-02
1.22764312e-02
1.22988961e-02
1.22764314e-02
1.22540021e-02
1.22540021e-02
1.22764314e-02
1.22540021e-02
1.22315848e-02
1.22315848e-02
1.22540021e-02
1.22315849e-02
1.22091717e-02
1.22091717e-02
1.22315849e-02
1.22091717e-02
1.21867599e-02
1.21867599e-02
1.22091717e-02
1.21867599e-02
1.21643487e-02
1.21643487e-02
1.21867599e-02
1.21643487e-02
1.21419376e-02
1.21419376e-02
1.21643487e-02
1.21419376e-02
1.21195266e-02
1.21195266e-02
1.21419376e-02
1.21195266e-02
1.20971157e-02
1.20971157e-02
1.21195266e-02
1.20971157e-02
1.20747047e-02
1.20747047e-02
1.20971157e-02
1.20747047e-02
1.20522937e-02
1.20522937e-02
1.20747047e-02
1.20522937e-02
1.20298828e-02
1.20298828e-02
1.20522937e-02
1.20298828e-02
1.20074718e-02
1.20074718e-02
1.20298828e-02
1.20074718e-02
1.19850609e-02
1.19850609e-02
1.20074718e-02
1.19850609e-02
1.19626499e-02
1.19626499e-02
1.19850609e-02
1.19626499e-02
1.19402390e-02
1.19402390e-02
1.19626499e-02
1.19402390e-02
1.19178280e-02
1.19178280e-02
1.19402390e-02
1.19178280e-02
1.18954171e-02
1.18954171e-02
1.19178280e-02
1.18954171e-02
1.18730061e-02
1.18730061e-02
1.18954171e-02
1.18730061e-02
1.18505951e-02
1.18505951e-02
1.18730061e-02
1.18505951e-02
1.18281842e-02
1.18281842e-02
1.18505951e-02
1.18281842e-02
1.18057732e-02
1.18057732e-02
1.18281842e-02
1.18057732e-02
1.17833623e-02
1.17833623e-02
1.18057732e-02
1.17833623e-02
1.17609513e-02
1.17609513e-02
1.17833623e-02
1.17609513e-02
1.17385404e-02
1.17385404e-02
1.17609513e-02
1.17385404e-02
1.17161294e-02
1.17161294e-02
1.17385404e-02
1.17161294e-02
1.16937185e-02
1.16937185e-02
1.17161294e-02
1.16937185e-02
1.16713075e-02
1.16713075e-02
1.16937185e-02
1.16713075e-02
1.16488966e-02
1.16488966e-02
1.16713075e-02
1.16488966e-02
1.16264856e-02
1.16264856e-02
1.16488966e-02
1.16264856e-02
1.16040746e-02
1.16040746e-02
1.16264856e-02
1.16040746e-02
1.15816637e-02
1.15816637e-02
1.16040746e-02
1.15816637e-02
1.15592527e-02
1.15592527e-02
1.15816637e-02
1.15592527e-02
1.15368418e-02
1.15368418e-02
1.15592527e-02
1.15368418e-02
1.15144308e-02
1.15144308e-02
1.15368418e-02
1.15144308e-02
1.14920199e-02
1.14920199e-02
1.15144308e-02
1.14920199e-02
1.14696089e-02
1.14696089e-02
1.14920199e-02
1.14696089e-02
1.14471980e-02
1.14471980e-02
1.14696089e-02
1.14471980e-02
1.14247870e-02
1.14247870e-02
1.14471980e-02
1.14247870e-02
1.14023761e-02
1.14023761e-02
1.14247870e-02
1.14023761e-02
1.13799651e-02
1.13799651e-02
1.14023761e-02
1.13799651e-02
1.13575542e-02
1.13575542e-02
1.13799651e-02
1.13575542e-02
1.13351432e-02
1.13351432e-02
1.13575542e-02
1.13351432e-02
1.13127323e-02
1.13127323e-02
1.13351432e-02
1.13127323e-02
1.12903213e-02
1.12903213e-02
1.13127323e-02
1.12903213e-02
1.12679103e-02
1.12679103e-02
1.12903213e-02
1.12679103e-02
1.12454994e-02
1.12454994e-02
1.12679103e-02
1.12454994e-02
1.12230884e-02
1.12230884e-02
1.12454994e-02
1.12230884e-02
1.06628146e-02
1.06628146e-02
1.12230884e-02
1.06628146e-02
1.01025409e-02
1.01025409e-02
1.06628146e-02
1.01025409e-02
9.54226731e-03
9.54226731e-03
1.01025409e-02
9.54226731e-03
8.98199381e-03
8.98199381e-03
9.54226731e-03
8.98199381e-03
8.42172045e-03
8.42172045e-03
8.98199381e-03
8.42172045e-03
7.86144723e-03
7.86144723e-03
8.42172045e-03
7.86144723e-03
7.30117417e-03
7.30117417e-03
7.86144723e-03
7.30117417e-03
6.74090128e-03
6.74090128e-03
7.30117417e-03
6.74090128e-03
6.18062856e-03
6.18062856e-03
6.74090128e-03
6.18062856e-03
5.62035601e-03
5.62035601e-03
6.18062856e-03
5.62035601e-03
5.06008364e-03
5.06008364e-03
5.62035601e-03
5.06008364e-03
4.49981143e-03
4.49981143e-03
5.06008364e-03
4.49981143e-03
3.93953938e-03
3.93953938e-03
4.49981143e-03
3.93953938e-03
3.37926747e-03
3.37926747e-03
3.93953938e-03
3.37926747e-03
2.81899570e-03
2.81899570e-03
3.37926747e-03
2.81899570e-03
2.25872403e-03
2.25872403e-03
2.81899570e-03
2.25872402e-03
1.69845256e-03
1.69845256e-03
2.25872402e-03
1.69845278e-03
1.13817896e-03
1.13817896e-03
1.69845278e-03
1.13817418e-03
5.77953052e-04
5.77953052e-04
1.13817418e-03
5.78075612e-04
1.65499181e-05
1.65499181e-05
5.78075612e-04
 
