# vtk DataFile Version 3.0 
Date: 6/1/2016   Time: 18:6
ASCII 
DATASET UNSTRUCTURED_GRID 
 
POINTS 236 float 
0.000000 0.000000 0.000000 
0.000625 0.000000 0.000000 
0.000625 1.000000 0.000000 
0.000000 1.000000 0.000000 
0.000625 0.000000 0.000000 
0.001250 0.000000 0.000000 
0.001250 1.000000 0.000000 
0.000625 1.000000 0.000000 
0.001250 0.000000 0.000000 
0.001875 0.000000 0.000000 
0.001875 1.000000 0.000000 
0.001250 1.000000 0.000000 
0.001875 0.000000 0.000000 
0.002500 0.000000 0.000000 
0.002500 1.000000 0.000000 
0.001875 1.000000 0.000000 
0.002500 0.000000 0.000000 
0.003125 0.000000 0.000000 
0.003125 1.000000 0.000000 
0.002500 1.000000 0.000000 
0.003125 0.000000 0.000000 
0.003750 0.000000 0.000000 
0.003750 1.000000 0.000000 
0.003125 1.000000 0.000000 
0.003750 0.000000 0.000000 
0.004375 0.000000 0.000000 
0.004375 1.000000 0.000000 
0.003750 1.000000 0.000000 
0.004375 0.000000 0.000000 
0.005000 0.000000 0.000000 
0.005000 1.000000 0.000000 
0.004375 1.000000 0.000000 
0.005000 0.000000 0.000000 
0.005625 0.000000 0.000000 
0.005625 1.000000 0.000000 
0.005000 1.000000 0.000000 
0.005625 0.000000 0.000000 
0.006250 0.000000 0.000000 
0.006250 1.000000 0.000000 
0.005625 1.000000 0.000000 
0.006250 0.000000 0.000000 
0.006875 0.000000 0.000000 
0.006875 1.000000 0.000000 
0.006250 1.000000 0.000000 
0.006875 0.000000 0.000000 
0.007500 0.000000 0.000000 
0.007500 1.000000 0.000000 
0.006875 1.000000 0.000000 
0.007500 0.000000 0.000000 
0.008125 0.000000 0.000000 
0.008125 1.000000 0.000000 
0.007500 1.000000 0.000000 
0.008125 0.000000 0.000000 
0.008750 0.000000 0.000000 
0.008750 1.000000 0.000000 
0.008125 1.000000 0.000000 
0.008750 0.000000 0.000000 
0.009375 0.000000 0.000000 
0.009375 1.000000 0.000000 
0.008750 1.000000 0.000000 
0.009375 0.000000 0.000000 
0.010000 0.000000 0.000000 
0.010000 1.000000 0.000000 
0.009375 1.000000 0.000000 
0.010000 0.000000 0.000000 
0.010625 0.000000 0.000000 
0.010625 1.000000 0.000000 
0.010000 1.000000 0.000000 
0.010625 0.000000 0.000000 
0.011250 0.000000 0.000000 
0.011250 1.000000 0.000000 
0.010625 1.000000 0.000000 
0.011250 0.000000 0.000000 
0.011875 0.000000 0.000000 
0.011875 1.000000 0.000000 
0.011250 1.000000 0.000000 
0.011875 0.000000 0.000000 
0.012500 0.000000 0.000000 
0.012500 1.000000 0.000000 
0.011875 1.000000 0.000000 
0.012500 0.000000 0.000000 
0.013125 0.000000 0.000000 
0.013125 1.000000 0.000000 
0.012500 1.000000 0.000000 
0.013125 0.000000 0.000000 
0.013750 0.000000 0.000000 
0.013750 1.000000 0.000000 
0.013125 1.000000 0.000000 
0.013750 0.000000 0.000000 
0.014375 0.000000 0.000000 
0.014375 1.000000 0.000000 
0.013750 1.000000 0.000000 
0.014375 0.000000 0.000000 
0.015000 0.000000 0.000000 
0.015000 1.000000 0.000000 
0.014375 1.000000 0.000000 
0.015000 0.000000 0.000000 
0.022708 0.000000 0.000000 
0.022708 1.000000 0.000000 
0.015000 1.000000 0.000000 
0.022708 0.000000 0.000000 
0.030417 0.000000 0.000000 
0.030417 1.000000 0.000000 
0.022708 1.000000 0.000000 
0.030417 0.000000 0.000000 
0.038125 0.000000 0.000000 
0.038125 1.000000 0.000000 
0.030417 1.000000 0.000000 
0.038125 0.000000 0.000000 
0.045833 0.000000 0.000000 
0.045833 1.000000 0.000000 
0.038125 1.000000 0.000000 
0.045833 0.000000 0.000000 
0.053542 0.000000 0.000000 
0.053542 1.000000 0.000000 
0.045833 1.000000 0.000000 
0.053542 0.000000 0.000000 
0.061250 0.000000 0.000000 
0.061250 1.000000 0.000000 
0.053542 1.000000 0.000000 
0.061250 0.000000 0.000000 
0.068958 0.000000 0.000000 
0.068958 1.000000 0.000000 
0.061250 1.000000 0.000000 
0.068958 0.000000 0.000000 
0.076667 0.000000 0.000000 
0.076667 1.000000 0.000000 
0.068958 1.000000 0.000000 
0.076667 0.000000 0.000000 
0.084375 0.000000 0.000000 
0.084375 1.000000 0.000000 
0.076667 1.000000 0.000000 
0.084375 0.000000 0.000000 
0.092083 0.000000 0.000000 
0.092083 1.000000 0.000000 
0.084375 1.000000 0.000000 
0.092083 0.000000 0.000000 
0.099792 0.000000 0.000000 
0.099792 1.000000 0.000000 
0.092083 1.000000 0.000000 
0.099792 0.000000 0.000000 
0.107500 0.000000 0.000000 
0.107500 1.000000 0.000000 
0.099792 1.000000 0.000000 
0.107500 0.000000 0.000000 
0.115208 0.000000 0.000000 
0.115208 1.000000 0.000000 
0.107500 1.000000 0.000000 
0.115208 0.000000 0.000000 
0.122917 0.000000 0.000000 
0.122917 1.000000 0.000000 
0.115208 1.000000 0.000000 
0.122917 0.000000 0.000000 
0.130625 0.000000 0.000000 
0.130625 1.000000 0.000000 
0.122917 1.000000 0.000000 
0.130625 0.000000 0.000000 
0.138333 0.000000 0.000000 
0.138333 1.000000 0.000000 
0.130625 1.000000 0.000000 
0.138333 0.000000 0.000000 
0.146042 0.000000 0.000000 
0.146042 1.000000 0.000000 
0.138333 1.000000 0.000000 
0.146042 0.000000 0.000000 
0.153750 0.000000 0.000000 
0.153750 1.000000 0.000000 
0.146042 1.000000 0.000000 
0.153750 0.000000 0.000000 
0.161458 0.000000 0.000000 
0.161458 1.000000 0.000000 
0.153750 1.000000 0.000000 
0.161458 0.000000 0.000000 
0.169167 0.000000 0.000000 
0.169167 1.000000 0.000000 
0.161458 1.000000 0.000000 
0.169167 0.000000 0.000000 
0.176875 0.000000 0.000000 
0.176875 1.000000 0.000000 
0.169167 1.000000 0.000000 
0.176875 0.000000 0.000000 
0.184583 0.000000 0.000000 
0.184583 1.000000 0.000000 
0.176875 1.000000 0.000000 
0.184583 0.000000 0.000000 
0.192292 0.000000 0.000000 
0.192292 1.000000 0.000000 
0.184583 1.000000 0.000000 
0.192292 0.000000 0.000000 
0.200000 0.000000 0.000000 
0.200000 1.000000 0.000000 
0.192292 1.000000 0.000000 
0.200000 0.000000 0.000000 
0.272727 0.000000 0.000000 
0.272727 1.000000 0.000000 
0.200000 1.000000 0.000000 
0.272727 0.000000 0.000000 
0.345455 0.000000 0.000000 
0.345455 1.000000 0.000000 
0.272727 1.000000 0.000000 
0.345455 0.000000 0.000000 
0.418182 0.000000 0.000000 
0.418182 1.000000 0.000000 
0.345455 1.000000 0.000000 
0.418182 0.000000 0.000000 
0.490909 0.000000 0.000000 
0.490909 1.000000 0.000000 
0.418182 1.000000 0.000000 
0.490909 0.000000 0.000000 
0.563636 0.000000 0.000000 
0.563636 1.000000 0.000000 
0.490909 1.000000 0.000000 
0.563636 0.000000 0.000000 
0.636364 0.000000 0.000000 
0.636364 1.000000 0.000000 
0.563636 1.000000 0.000000 
0.636364 0.000000 0.000000 
0.709091 0.000000 0.000000 
0.709091 1.000000 0.000000 
0.636364 1.000000 0.000000 
0.709091 0.000000 0.000000 
0.781818 0.000000 0.000000 
0.781818 1.000000 0.000000 
0.709091 1.000000 0.000000 
0.781818 0.000000 0.000000 
0.854545 0.000000 0.000000 
0.854545 1.000000 0.000000 
0.781818 1.000000 0.000000 
0.854545 0.000000 0.000000 
0.927273 0.000000 0.000000 
0.927273 1.000000 0.000000 
0.854545 1.000000 0.000000 
0.927273 0.000000 0.000000 
1.000000 0.000000 0.000000 
1.000000 1.000000 0.000000 
0.927273 1.000000 0.000000 
CELLS 59 295 
 4 0 1 2 3  
 4 4 5 6 7  
 4 8 9 10 11  
 4 12 13 14 15  
 4 16 17 18 19  
 4 20 21 22 23  
 4 24 25 26 27  
 4 28 29 30 31  
 4 32 33 34 35  
 4 36 37 38 39  
 4 40 41 42 43  
 4 44 45 46 47  
 4 48 49 50 51  
 4 52 53 54 55  
 4 56 57 58 59  
 4 60 61 62 63  
 4 64 65 66 67  
 4 68 69 70 71  
 4 72 73 74 75  
 4 76 77 78 79  
 4 80 81 82 83  
 4 84 85 86 87  
 4 88 89 90 91  
 4 92 93 94 95  
 4 96 97 98 99  
 4 100 101 102 103  
 4 104 105 106 107  
 4 108 109 110 111  
 4 112 113 114 115  
 4 116 117 118 119  
 4 120 121 122 123  
 4 124 125 126 127  
 4 128 129 130 131  
 4 132 133 134 135  
 4 136 137 138 139  
 4 140 141 142 143  
 4 144 145 146 147  
 4 148 149 150 151  
 4 152 153 154 155  
 4 156 157 158 159  
 4 160 161 162 163  
 4 164 165 166 167  
 4 168 169 170 171  
 4 172 173 174 175  
 4 176 177 178 179  
 4 180 181 182 183  
 4 184 185 186 187  
 4 188 189 190 191  
 4 192 193 194 195  
 4 196 197 198 199  
 4 200 201 202 203  
 4 204 205 206 207  
 4 208 209 210 211  
 4 212 213 214 215  
 4 216 217 218 219  
 4 220 221 222 223  
 4 224 225 226 227  
 4 228 229 230 231  
 4 232 233 234 235  
 
CELL_TYPES 59
7
7
7
7
7
7
7
7
7
7
7
7
7
7
7
7
7
7
7
7
7
7
7
7
7
7
7
7
7
7
7
7
7
7
7
7
7
7
7
7
7
7
7
7
7
7
7
7
7
7
7
7
7
7
7
7
7
7
7
CELL_DATA 59
FIELD FieldData 1
material 1 59 int
1
1
1
1
1
1
1
1
1
1
1
1
1
1
1
1
1
1
1
1
1
1
1
1
1
1
1
1
1
1
1
1
1
1
1
1
1
1
1
1
1
1
1
1
1
1
1
1
1
1
1
1
1
1
1
1
1
1
1
POINT_DATA 236 SCALARS flux_g1 double 
LOOKUP_TABLE   default 
2.20485585e-01
1.86594451e-01
1.86594451e-01
2.20485585e-01
1.85832796e-01
1.57682114e-01
1.57682114e-01
1.85832796e-01
1.57050052e-01
1.33663281e-01
1.33663281e-01
1.57050052e-01
1.33138743e-01
1.13705647e-01
1.13705647e-01
1.33138743e-01
1.13270320e-01
9.71186322e-02
9.71186322e-02
1.13270320e-01
9.67573261e-02
8.33292500e-02
8.33292500e-02
9.67573261e-02
8.30293609e-02
7.18620687e-02
7.18620687e-02
8.30293609e-02
7.16131400e-02
6.23225964e-02
6.23225964e-02
7.16131400e-02
6.21159526e-02
5.43834937e-02
5.43834937e-02
6.21159526e-02
5.42119371e-02
4.77731358e-02
4.77731358e-02
5.42119371e-02
4.76306945e-02
4.22661228e-02
4.22661228e-02
4.76306945e-02
4.21478421e-02
3.76754068e-02
3.76754068e-02
4.21478421e-02
3.75771758e-02
3.38457605e-02
3.38457605e-02
3.75771758e-02
3.37641684e-02
3.06483579e-02
3.06483579e-02
3.37641684e-02
3.05805749e-02
2.79762788e-02
2.79762788e-02
3.05805749e-02
2.79199566e-02
2.57407784e-02
2.57407784e-02
2.79199566e-02
2.56939687e-02
2.38681927e-02
2.38681927e-02
2.56939687e-02
2.38292788e-02
2.22973710e-02
2.22973710e-02
2.38292788e-02
2.22650115e-02
2.09775455e-02
2.09775455e-02
2.22650115e-02
2.09506272e-02
1.98665640e-02
1.98665640e-02
2.09506272e-02
1.98441631e-02
1.89294230e-02
1.89294230e-02
1.98441631e-02
1.89107728e-02
1.81370513e-02
1.81370513e-02
1.89107728e-02
1.81215156e-02
1.74652999e-02
1.74652999e-02
1.81215156e-02
1.74523505e-02
1.68941043e-02
1.68941043e-02
1.74523505e-02
1.62811087e-02
1.37505866e-02
1.37505866e-02
1.62811087e-02
1.37175363e-02
1.29889501e-02
1.29889501e-02
1.37175363e-02
1.29754934e-02
1.25243679e-02
1.25243679e-02
1.29754934e-02
1.25166454e-02
1.21785554e-02
1.21785554e-02
1.25166454e-02
1.21736856e-02
1.19035159e-02
1.19035159e-02
1.21736856e-02
1.19002816e-02
1.16751729e-02
1.16751729e-02
1.19002816e-02
1.16729338e-02
1.14792190e-02
1.14792190e-02
1.16729338e-02
1.14776142e-02
1.13065942e-02
1.13065942e-02
1.14776142e-02
1.13054109e-02
1.11512914e-02
1.11512914e-02
1.13054109e-02
1.11503983e-02
1.10091694e-02
1.10091694e-02
1.11503983e-02
1.10084824e-02
1.08772781e-02
1.08772781e-02
1.10084824e-02
1.08767411e-02
1.07534576e-02
1.07534576e-02
1.08767411e-02
1.07530323e-02
1.06360908e-02
1.06360908e-02
1.07530323e-02
1.06357499e-02
1.05239436e-02
1.05239436e-02
1.06357499e-02
1.05236678e-02
1.04160598e-02
1.04160598e-02
1.05236678e-02
1.04158345e-02
1.03116878e-02
1.03116878e-02
1.04158345e-02
1.03115024e-02
1.02102302e-02
1.02102302e-02
1.03115024e-02
1.02100766e-02
1.01112072e-02
1.01112072e-02
1.02100766e-02
1.01110791e-02
1.00142298e-02
1.00142298e-02
1.01110791e-02
1.00141223e-02
9.91897964e-03
9.91897964e-03
1.00141223e-02
9.91888897e-03
9.82519415e-03
9.82519415e-03
9.91888897e-03
9.82511718e-03
9.73265422e-03
9.73265422e-03
9.82511718e-03
9.73258836e-03
9.64117135e-03
9.64117135e-03
9.73258836e-03
9.64111402e-03
9.55053440e-03
9.55053440e-03
9.64111402e-03
9.54705302e-03
8.72265205e-03
8.72265205e-03
9.54705302e-03
8.72275614e-03
7.91950836e-03
7.91950836e-03
8.72275614e-03
7.91951167e-03
7.12270253e-03
7.12270253e-03
7.91951167e-03
7.12269997e-03
6.32809417e-03
6.32809417e-03
7.12269997e-03
6.32809212e-03
5.53426149e-03
5.53426149e-03
6.32809212e-03
5.53426022e-03
4.74064271e-03
4.74064271e-03
5.53426022e-03
4.74064203e-03
3.94688138e-03
3.94688138e-03
4.74064203e-03
3.94687889e-03
3.15243089e-03
3.15243089e-03
3.94687889e-03
3.15246404e-03
2.35550073e-03
2.35550073e-03
3.15246404e-03
2.35523167e-03
1.55213651e-03
1.55213651e-03
2.35523167e-03
1.55752538e-03
6.72328852e-04
6.72328852e-04
1.55752538e-03
 
