# vtk DataFile Version 3.0 
Date: 3/21/2016   Time: 12:47
ASCII 
DATASET UNSTRUCTURED_GRID 
 
POINTS 144 float 
0.000000 0.000000 0.000000 
0.166667 0.000000 0.000000 
0.166667 0.166667 0.000000 
0.000000 0.166667 0.000000 
0.166667 0.000000 0.000000 
0.333333 0.000000 0.000000 
0.333333 0.166667 0.000000 
0.166667 0.166667 0.000000 
0.333333 0.000000 0.000000 
0.500000 0.000000 0.000000 
0.500000 0.166667 0.000000 
0.333333 0.166667 0.000000 
0.500000 0.000000 0.000000 
0.666667 0.000000 0.000000 
0.666667 0.166667 0.000000 
0.500000 0.166667 0.000000 
0.666667 0.000000 0.000000 
0.833333 0.000000 0.000000 
0.833333 0.166667 0.000000 
0.666667 0.166667 0.000000 
0.833333 0.000000 0.000000 
1.000000 0.000000 0.000000 
1.000000 0.166667 0.000000 
0.833333 0.166667 0.000000 
0.000000 0.166667 0.000000 
0.166667 0.166667 0.000000 
0.166667 0.333333 0.000000 
0.000000 0.333333 0.000000 
0.166667 0.166667 0.000000 
0.333333 0.166667 0.000000 
0.333333 0.333333 0.000000 
0.166667 0.333333 0.000000 
0.333333 0.166667 0.000000 
0.500000 0.166667 0.000000 
0.500000 0.333333 0.000000 
0.333333 0.333333 0.000000 
0.500000 0.166667 0.000000 
0.666667 0.166667 0.000000 
0.666667 0.333333 0.000000 
0.500000 0.333333 0.000000 
0.666667 0.166667 0.000000 
0.833333 0.166667 0.000000 
0.833333 0.333333 0.000000 
0.666667 0.333333 0.000000 
0.833333 0.166667 0.000000 
1.000000 0.166667 0.000000 
1.000000 0.333333 0.000000 
0.833333 0.333333 0.000000 
0.000000 0.333333 0.000000 
0.166667 0.333333 0.000000 
0.166667 0.500000 0.000000 
0.000000 0.500000 0.000000 
0.166667 0.333333 0.000000 
0.333333 0.333333 0.000000 
0.333333 0.500000 0.000000 
0.166667 0.500000 0.000000 
0.333333 0.333333 0.000000 
0.500000 0.333333 0.000000 
0.500000 0.500000 0.000000 
0.333333 0.500000 0.000000 
0.500000 0.333333 0.000000 
0.666667 0.333333 0.000000 
0.666667 0.500000 0.000000 
0.500000 0.500000 0.000000 
0.666667 0.333333 0.000000 
0.833333 0.333333 0.000000 
0.833333 0.500000 0.000000 
0.666667 0.500000 0.000000 
0.833333 0.333333 0.000000 
1.000000 0.333333 0.000000 
1.000000 0.500000 0.000000 
0.833333 0.500000 0.000000 
0.000000 0.500000 0.000000 
0.166667 0.500000 0.000000 
0.166667 0.666667 0.000000 
0.000000 0.666667 0.000000 
0.166667 0.500000 0.000000 
0.333333 0.500000 0.000000 
0.333333 0.666667 0.000000 
0.166667 0.666667 0.000000 
0.333333 0.500000 0.000000 
0.500000 0.500000 0.000000 
0.500000 0.666667 0.000000 
0.333333 0.666667 0.000000 
0.500000 0.500000 0.000000 
0.666667 0.500000 0.000000 
0.666667 0.666667 0.000000 
0.500000 0.666667 0.000000 
0.666667 0.500000 0.000000 
0.833333 0.500000 0.000000 
0.833333 0.666667 0.000000 
0.666667 0.666667 0.000000 
0.833333 0.500000 0.000000 
1.000000 0.500000 0.000000 
1.000000 0.666667 0.000000 
0.833333 0.666667 0.000000 
0.000000 0.666667 0.000000 
0.166667 0.666667 0.000000 
0.166667 0.833333 0.000000 
0.000000 0.833333 0.000000 
0.166667 0.666667 0.000000 
0.333333 0.666667 0.000000 
0.333333 0.833333 0.000000 
0.166667 0.833333 0.000000 
0.333333 0.666667 0.000000 
0.500000 0.666667 0.000000 
0.500000 0.833333 0.000000 
0.333333 0.833333 0.000000 
0.500000 0.666667 0.000000 
0.666667 0.666667 0.000000 
0.666667 0.833333 0.000000 
0.500000 0.833333 0.000000 
0.666667 0.666667 0.000000 
0.833333 0.666667 0.000000 
0.833333 0.833333 0.000000 
0.666667 0.833333 0.000000 
0.833333 0.666667 0.000000 
1.000000 0.666667 0.000000 
1.000000 0.833333 0.000000 
0.833333 0.833333 0.000000 
0.000000 0.833333 0.000000 
0.166667 0.833333 0.000000 
0.166667 1.000000 0.000000 
0.000000 1.000000 0.000000 
0.166667 0.833333 0.000000 
0.333333 0.833333 0.000000 
0.333333 1.000000 0.000000 
0.166667 1.000000 0.000000 
0.333333 0.833333 0.000000 
0.500000 0.833333 0.000000 
0.500000 1.000000 0.000000 
0.333333 1.000000 0.000000 
0.500000 0.833333 0.000000 
0.666667 0.833333 0.000000 
0.666667 1.000000 0.000000 
0.500000 1.000000 0.000000 
0.666667 0.833333 0.000000 
0.833333 0.833333 0.000000 
0.833333 1.000000 0.000000 
0.666667 1.000000 0.000000 
0.833333 0.833333 0.000000 
1.000000 0.833333 0.000000 
1.000000 1.000000 0.000000 
0.833333 1.000000 0.000000 
CELLS 36 180 
 4 0 1 2 3  
 4 4 5 6 7  
 4 8 9 10 11  
 4 12 13 14 15  
 4 16 17 18 19  
 4 20 21 22 23  
 4 24 25 26 27  
 4 28 29 30 31  
 4 32 33 34 35  
 4 36 37 38 39  
 4 40 41 42 43  
 4 44 45 46 47  
 4 48 49 50 51  
 4 52 53 54 55  
 4 56 57 58 59  
 4 60 61 62 63  
 4 64 65 66 67  
 4 68 69 70 71  
 4 72 73 74 75  
 4 76 77 78 79  
 4 80 81 82 83  
 4 84 85 86 87  
 4 88 89 90 91  
 4 92 93 94 95  
 4 96 97 98 99  
 4 100 101 102 103  
 4 104 105 106 107  
 4 108 109 110 111  
 4 112 113 114 115  
 4 116 117 118 119  
 4 120 121 122 123  
 4 124 125 126 127  
 4 128 129 130 131  
 4 132 133 134 135  
 4 136 137 138 139  
 4 140 141 142 143  
 
CELL_TYPES 36
7
7
7
7
7
7
7
7
7
7
7
7
7
7
7
7
7
7
7
7
7
7
7
7
7
7
7
7
7
7
7
7
7
7
7
7
CELL_DATA 36
FIELD FieldData 1
material 1 36 int
1
1
1
1
1
1
1
1
1
1
1
1
1
1
1
1
1
1
1
1
1
1
1
1
1
1
1
1
1
1
1
1
1
1
1
1
POINT_DATA 144 SCALARS flux_g1 double 
LOOKUP_TABLE   default 
0.102773
0.853497
8.122068
0.853497
0.850408
0.056233
0.855788
8.120127
-0.060680
-0.848864
-8.111844
-0.831114
-0.848864
-0.060680
-0.831114
-8.111844
0.056233
0.850408
8.120127
0.855788
0.853497
0.102773
0.853497
8.122068
0.850408
8.120127
0.855788
0.056233
8.116626
0.851831
-0.008682
0.851831
-0.826411
-8.103405
-0.834644
0.016469
-8.103405
-0.826411
0.016469
-0.834644
0.851831
8.116626
0.851831
-0.008682
8.120127
0.850408
0.056233
0.855788
-0.060680
-0.831114
-8.111844
-0.848864
-0.826411
0.016469
-0.834644
-8.103405
-0.016865
0.816311
8.091801
0.816311
0.816311
-0.016865
0.816311
8.091801
0.016469
-0.826411
-8.103405
-0.834644
-0.831114
-0.060680
-0.848864
-8.111844
-0.848864
-8.111844
-0.831114
-0.060680
-8.103405
-0.834644
0.016469
-0.826411
0.816311
8.091801
0.816311
-0.016865
8.091801
0.816311
-0.016865
0.816311
-0.834644
-8.103405
-0.826411
0.016469
-8.111844
-0.848864
-0.060680
-0.831114
0.056233
0.855788
8.120127
0.850408
0.851831
-0.008682
0.851831
8.116626
0.016469
-0.834644
-8.103405
-0.826411
-0.834644
0.016469
-0.826411
-8.103405
-0.008682
0.851831
8.116626
0.851831
0.855788
0.056233
0.850408
8.120127
0.853497
8.122068
0.853497
0.102773
8.120127
0.855788
0.056233
0.850408
-0.831114
-8.111844
-0.848864
-0.060680
-8.111844
-0.831114
-0.060680
-0.848864
0.855788
8.120127
0.850408
0.056233
8.122068
0.853497
0.102773
0.853497
 
