# vtk DataFile Version 3.0 
Date: 3/21/2016   Time: 12:48
ASCII 
DATASET UNSTRUCTURED_GRID 
 
POINTS 576 float 
0.000000 0.000000 0.000000 
0.083333 0.000000 0.000000 
0.083333 0.083333 0.000000 
0.000000 0.083333 0.000000 
0.166667 0.000000 0.000000 
0.250000 0.000000 0.000000 
0.250000 0.083333 0.000000 
0.166667 0.083333 0.000000 
0.333333 0.000000 0.000000 
0.416667 0.000000 0.000000 
0.416667 0.083333 0.000000 
0.333333 0.083333 0.000000 
0.500000 0.000000 0.000000 
0.583333 0.000000 0.000000 
0.583333 0.083333 0.000000 
0.500000 0.083333 0.000000 
0.666667 0.000000 0.000000 
0.750000 0.000000 0.000000 
0.750000 0.083333 0.000000 
0.666667 0.083333 0.000000 
0.833333 0.000000 0.000000 
0.916667 0.000000 0.000000 
0.916667 0.083333 0.000000 
0.833333 0.083333 0.000000 
0.000000 0.166667 0.000000 
0.083333 0.166667 0.000000 
0.083333 0.250000 0.000000 
0.000000 0.250000 0.000000 
0.166667 0.166667 0.000000 
0.250000 0.166667 0.000000 
0.250000 0.250000 0.000000 
0.166667 0.250000 0.000000 
0.333333 0.166667 0.000000 
0.416667 0.166667 0.000000 
0.416667 0.250000 0.000000 
0.333333 0.250000 0.000000 
0.500000 0.166667 0.000000 
0.583333 0.166667 0.000000 
0.583333 0.250000 0.000000 
0.500000 0.250000 0.000000 
0.666667 0.166667 0.000000 
0.750000 0.166667 0.000000 
0.750000 0.250000 0.000000 
0.666667 0.250000 0.000000 
0.833333 0.166667 0.000000 
0.916667 0.166667 0.000000 
0.916667 0.250000 0.000000 
0.833333 0.250000 0.000000 
0.000000 0.333333 0.000000 
0.083333 0.333333 0.000000 
0.083333 0.416667 0.000000 
0.000000 0.416667 0.000000 
0.166667 0.333333 0.000000 
0.250000 0.333333 0.000000 
0.250000 0.416667 0.000000 
0.166667 0.416667 0.000000 
0.333333 0.333333 0.000000 
0.416667 0.333333 0.000000 
0.416667 0.416667 0.000000 
0.333333 0.416667 0.000000 
0.500000 0.333333 0.000000 
0.583333 0.333333 0.000000 
0.583333 0.416667 0.000000 
0.500000 0.416667 0.000000 
0.666667 0.333333 0.000000 
0.750000 0.333333 0.000000 
0.750000 0.416667 0.000000 
0.666667 0.416667 0.000000 
0.833333 0.333333 0.000000 
0.916667 0.333333 0.000000 
0.916667 0.416667 0.000000 
0.833333 0.416667 0.000000 
0.000000 0.500000 0.000000 
0.083333 0.500000 0.000000 
0.083333 0.583333 0.000000 
0.000000 0.583333 0.000000 
0.166667 0.500000 0.000000 
0.250000 0.500000 0.000000 
0.250000 0.583333 0.000000 
0.166667 0.583333 0.000000 
0.333333 0.500000 0.000000 
0.416667 0.500000 0.000000 
0.416667 0.583333 0.000000 
0.333333 0.583333 0.000000 
0.500000 0.500000 0.000000 
0.583333 0.500000 0.000000 
0.583333 0.583333 0.000000 
0.500000 0.583333 0.000000 
0.666667 0.500000 0.000000 
0.750000 0.500000 0.000000 
0.750000 0.583333 0.000000 
0.666667 0.583333 0.000000 
0.833333 0.500000 0.000000 
0.916667 0.500000 0.000000 
0.916667 0.583333 0.000000 
0.833333 0.583333 0.000000 
0.000000 0.666667 0.000000 
0.083333 0.666667 0.000000 
0.083333 0.750000 0.000000 
0.000000 0.750000 0.000000 
0.166667 0.666667 0.000000 
0.250000 0.666667 0.000000 
0.250000 0.750000 0.000000 
0.166667 0.750000 0.000000 
0.333333 0.666667 0.000000 
0.416667 0.666667 0.000000 
0.416667 0.750000 0.000000 
0.333333 0.750000 0.000000 
0.500000 0.666667 0.000000 
0.583333 0.666667 0.000000 
0.583333 0.750000 0.000000 
0.500000 0.750000 0.000000 
0.666667 0.666667 0.000000 
0.750000 0.666667 0.000000 
0.750000 0.750000 0.000000 
0.666667 0.750000 0.000000 
0.833333 0.666667 0.000000 
0.916667 0.666667 0.000000 
0.916667 0.750000 0.000000 
0.833333 0.750000 0.000000 
0.000000 0.833333 0.000000 
0.083333 0.833333 0.000000 
0.083333 0.916667 0.000000 
0.000000 0.916667 0.000000 
0.166667 0.833333 0.000000 
0.250000 0.833333 0.000000 
0.250000 0.916667 0.000000 
0.166667 0.916667 0.000000 
0.333333 0.833333 0.000000 
0.416667 0.833333 0.000000 
0.416667 0.916667 0.000000 
0.333333 0.916667 0.000000 
0.500000 0.833333 0.000000 
0.583333 0.833333 0.000000 
0.583333 0.916667 0.000000 
0.500000 0.916667 0.000000 
0.666667 0.833333 0.000000 
0.750000 0.833333 0.000000 
0.750000 0.916667 0.000000 
0.666667 0.916667 0.000000 
0.833333 0.833333 0.000000 
0.916667 0.833333 0.000000 
0.916667 0.916667 0.000000 
0.833333 0.916667 0.000000 
0.166667 0.000000 0.000000 
0.166667 0.083333 0.000000 
0.083333 0.083333 0.000000 
0.083333 0.000000 0.000000 
0.166667 0.166667 0.000000 
0.083333 0.166667 0.000000 
0.083333 0.083333 0.000000 
0.166667 0.083333 0.000000 
0.000000 0.166667 0.000000 
0.000000 0.083333 0.000000 
0.083333 0.083333 0.000000 
0.083333 0.166667 0.000000 
0.333333 0.000000 0.000000 
0.333333 0.083333 0.000000 
0.250000 0.083333 0.000000 
0.250000 0.000000 0.000000 
0.333333 0.166667 0.000000 
0.250000 0.166667 0.000000 
0.250000 0.083333 0.000000 
0.333333 0.083333 0.000000 
0.166667 0.166667 0.000000 
0.166667 0.083333 0.000000 
0.250000 0.083333 0.000000 
0.250000 0.166667 0.000000 
0.500000 0.000000 0.000000 
0.500000 0.083333 0.000000 
0.416667 0.083333 0.000000 
0.416667 0.000000 0.000000 
0.500000 0.166667 0.000000 
0.416667 0.166667 0.000000 
0.416667 0.083333 0.000000 
0.500000 0.083333 0.000000 
0.333333 0.166667 0.000000 
0.333333 0.083333 0.000000 
0.416667 0.083333 0.000000 
0.416667 0.166667 0.000000 
0.666667 0.000000 0.000000 
0.666667 0.083333 0.000000 
0.583333 0.083333 0.000000 
0.583333 0.000000 0.000000 
0.666667 0.166667 0.000000 
0.583333 0.166667 0.000000 
0.583333 0.083333 0.000000 
0.666667 0.083333 0.000000 
0.500000 0.166667 0.000000 
0.500000 0.083333 0.000000 
0.583333 0.083333 0.000000 
0.583333 0.166667 0.000000 
0.833333 0.000000 0.000000 
0.833333 0.083333 0.000000 
0.750000 0.083333 0.000000 
0.750000 0.000000 0.000000 
0.833333 0.166667 0.000000 
0.750000 0.166667 0.000000 
0.750000 0.083333 0.000000 
0.833333 0.083333 0.000000 
0.666667 0.166667 0.000000 
0.666667 0.083333 0.000000 
0.750000 0.083333 0.000000 
0.750000 0.166667 0.000000 
1.000000 0.000000 0.000000 
1.000000 0.083333 0.000000 
0.916667 0.083333 0.000000 
0.916667 0.000000 0.000000 
1.000000 0.166667 0.000000 
0.916667 0.166667 0.000000 
0.916667 0.083333 0.000000 
1.000000 0.083333 0.000000 
0.833333 0.166667 0.000000 
0.833333 0.083333 0.000000 
0.916667 0.083333 0.000000 
0.916667 0.166667 0.000000 
0.166667 0.166667 0.000000 
0.166667 0.250000 0.000000 
0.083333 0.250000 0.000000 
0.083333 0.166667 0.000000 
0.166667 0.333333 0.000000 
0.083333 0.333333 0.000000 
0.083333 0.250000 0.000000 
0.166667 0.250000 0.000000 
0.000000 0.333333 0.000000 
0.000000 0.250000 0.000000 
0.083333 0.250000 0.000000 
0.083333 0.333333 0.000000 
0.333333 0.166667 0.000000 
0.333333 0.250000 0.000000 
0.250000 0.250000 0.000000 
0.250000 0.166667 0.000000 
0.333333 0.333333 0.000000 
0.250000 0.333333 0.000000 
0.250000 0.250000 0.000000 
0.333333 0.250000 0.000000 
0.166667 0.333333 0.000000 
0.166667 0.250000 0.000000 
0.250000 0.250000 0.000000 
0.250000 0.333333 0.000000 
0.500000 0.166667 0.000000 
0.500000 0.250000 0.000000 
0.416667 0.250000 0.000000 
0.416667 0.166667 0.000000 
0.500000 0.333333 0.000000 
0.416667 0.333333 0.000000 
0.416667 0.250000 0.000000 
0.500000 0.250000 0.000000 
0.333333 0.333333 0.000000 
0.333333 0.250000 0.000000 
0.416667 0.250000 0.000000 
0.416667 0.333333 0.000000 
0.666667 0.166667 0.000000 
0.666667 0.250000 0.000000 
0.583333 0.250000 0.000000 
0.583333 0.166667 0.000000 
0.666667 0.333333 0.000000 
0.583333 0.333333 0.000000 
0.583333 0.250000 0.000000 
0.666667 0.250000 0.000000 
0.500000 0.333333 0.000000 
0.500000 0.250000 0.000000 
0.583333 0.250000 0.000000 
0.583333 0.333333 0.000000 
0.833333 0.166667 0.000000 
0.833333 0.250000 0.000000 
0.750000 0.250000 0.000000 
0.750000 0.166667 0.000000 
0.833333 0.333333 0.000000 
0.750000 0.333333 0.000000 
0.750000 0.250000 0.000000 
0.833333 0.250000 0.000000 
0.666667 0.333333 0.000000 
0.666667 0.250000 0.000000 
0.750000 0.250000 0.000000 
0.750000 0.333333 0.000000 
1.000000 0.166667 0.000000 
1.000000 0.250000 0.000000 
0.916667 0.250000 0.000000 
0.916667 0.166667 0.000000 
1.000000 0.333333 0.000000 
0.916667 0.333333 0.000000 
0.916667 0.250000 0.000000 
1.000000 0.250000 0.000000 
0.833333 0.333333 0.000000 
0.833333 0.250000 0.000000 
0.916667 0.250000 0.000000 
0.916667 0.333333 0.000000 
0.166667 0.333333 0.000000 
0.166667 0.416667 0.000000 
0.083333 0.416667 0.000000 
0.083333 0.333333 0.000000 
0.166667 0.500000 0.000000 
0.083333 0.500000 0.000000 
0.083333 0.416667 0.000000 
0.166667 0.416667 0.000000 
0.000000 0.500000 0.000000 
0.000000 0.416667 0.000000 
0.083333 0.416667 0.000000 
0.083333 0.500000 0.000000 
0.333333 0.333333 0.000000 
0.333333 0.416667 0.000000 
0.250000 0.416667 0.000000 
0.250000 0.333333 0.000000 
0.333333 0.500000 0.000000 
0.250000 0.500000 0.000000 
0.250000 0.416667 0.000000 
0.333333 0.416667 0.000000 
0.166667 0.500000 0.000000 
0.166667 0.416667 0.000000 
0.250000 0.416667 0.000000 
0.250000 0.500000 0.000000 
0.500000 0.333333 0.000000 
0.500000 0.416667 0.000000 
0.416667 0.416667 0.000000 
0.416667 0.333333 0.000000 
0.500000 0.500000 0.000000 
0.416667 0.500000 0.000000 
0.416667 0.416667 0.000000 
0.500000 0.416667 0.000000 
0.333333 0.500000 0.000000 
0.333333 0.416667 0.000000 
0.416667 0.416667 0.000000 
0.416667 0.500000 0.000000 
0.666667 0.333333 0.000000 
0.666667 0.416667 0.000000 
0.583333 0.416667 0.000000 
0.583333 0.333333 0.000000 
0.666667 0.500000 0.000000 
0.583333 0.500000 0.000000 
0.583333 0.416667 0.000000 
0.666667 0.416667 0.000000 
0.500000 0.500000 0.000000 
0.500000 0.416667 0.000000 
0.583333 0.416667 0.000000 
0.583333 0.500000 0.000000 
0.833333 0.333333 0.000000 
0.833333 0.416667 0.000000 
0.750000 0.416667 0.000000 
0.750000 0.333333 0.000000 
0.833333 0.500000 0.000000 
0.750000 0.500000 0.000000 
0.750000 0.416667 0.000000 
0.833333 0.416667 0.000000 
0.666667 0.500000 0.000000 
0.666667 0.416667 0.000000 
0.750000 0.416667 0.000000 
0.750000 0.500000 0.000000 
1.000000 0.333333 0.000000 
1.000000 0.416667 0.000000 
0.916667 0.416667 0.000000 
0.916667 0.333333 0.000000 
1.000000 0.500000 0.000000 
0.916667 0.500000 0.000000 
0.916667 0.416667 0.000000 
1.000000 0.416667 0.000000 
0.833333 0.500000 0.000000 
0.833333 0.416667 0.000000 
0.916667 0.416667 0.000000 
0.916667 0.500000 0.000000 
0.166667 0.500000 0.000000 
0.166667 0.583333 0.000000 
0.083333 0.583333 0.000000 
0.083333 0.500000 0.000000 
0.166667 0.666667 0.000000 
0.083333 0.666667 0.000000 
0.083333 0.583333 0.000000 
0.166667 0.583333 0.000000 
0.000000 0.666667 0.000000 
0.000000 0.583333 0.000000 
0.083333 0.583333 0.000000 
0.083333 0.666667 0.000000 
0.333333 0.500000 0.000000 
0.333333 0.583333 0.000000 
0.250000 0.583333 0.000000 
0.250000 0.500000 0.000000 
0.333333 0.666667 0.000000 
0.250000 0.666667 0.000000 
0.250000 0.583333 0.000000 
0.333333 0.583333 0.000000 
0.166667 0.666667 0.000000 
0.166667 0.583333 0.000000 
0.250000 0.583333 0.000000 
0.250000 0.666667 0.000000 
0.500000 0.500000 0.000000 
0.500000 0.583333 0.000000 
0.416667 0.583333 0.000000 
0.416667 0.500000 0.000000 
0.500000 0.666667 0.000000 
0.416667 0.666667 0.000000 
0.416667 0.583333 0.000000 
0.500000 0.583333 0.000000 
0.333333 0.666667 0.000000 
0.333333 0.583333 0.000000 
0.416667 0.583333 0.000000 
0.416667 0.666667 0.000000 
0.666667 0.500000 0.000000 
0.666667 0.583333 0.000000 
0.583333 0.583333 0.000000 
0.583333 0.500000 0.000000 
0.666667 0.666667 0.000000 
0.583333 0.666667 0.000000 
0.583333 0.583333 0.000000 
0.666667 0.583333 0.000000 
0.500000 0.666667 0.000000 
0.500000 0.583333 0.000000 
0.583333 0.583333 0.000000 
0.583333 0.666667 0.000000 
0.833333 0.500000 0.000000 
0.833333 0.583333 0.000000 
0.750000 0.583333 0.000000 
0.750000 0.500000 0.000000 
0.833333 0.666667 0.000000 
0.750000 0.666667 0.000000 
0.750000 0.583333 0.000000 
0.833333 0.583333 0.000000 
0.666667 0.666667 0.000000 
0.666667 0.583333 0.000000 
0.750000 0.583333 0.000000 
0.750000 0.666667 0.000000 
1.000000 0.500000 0.000000 
1.000000 0.583333 0.000000 
0.916667 0.583333 0.000000 
0.916667 0.500000 0.000000 
1.000000 0.666667 0.000000 
0.916667 0.666667 0.000000 
0.916667 0.583333 0.000000 
1.000000 0.583333 0.000000 
0.833333 0.666667 0.000000 
0.833333 0.583333 0.000000 
0.916667 0.583333 0.000000 
0.916667 0.666667 0.000000 
0.166667 0.666667 0.000000 
0.166667 0.750000 0.000000 
0.083333 0.750000 0.000000 
0.083333 0.666667 0.000000 
0.166667 0.833333 0.000000 
0.083333 0.833333 0.000000 
0.083333 0.750000 0.000000 
0.166667 0.750000 0.000000 
0.000000 0.833333 0.000000 
0.000000 0.750000 0.000000 
0.083333 0.750000 0.000000 
0.083333 0.833333 0.000000 
0.333333 0.666667 0.000000 
0.333333 0.750000 0.000000 
0.250000 0.750000 0.000000 
0.250000 0.666667 0.000000 
0.333333 0.833333 0.000000 
0.250000 0.833333 0.000000 
0.250000 0.750000 0.000000 
0.333333 0.750000 0.000000 
0.166667 0.833333 0.000000 
0.166667 0.750000 0.000000 
0.250000 0.750000 0.000000 
0.250000 0.833333 0.000000 
0.500000 0.666667 0.000000 
0.500000 0.750000 0.000000 
0.416667 0.750000 0.000000 
0.416667 0.666667 0.000000 
0.500000 0.833333 0.000000 
0.416667 0.833333 0.000000 
0.416667 0.750000 0.000000 
0.500000 0.750000 0.000000 
0.333333 0.833333 0.000000 
0.333333 0.750000 0.000000 
0.416667 0.750000 0.000000 
0.416667 0.833333 0.000000 
0.666667 0.666667 0.000000 
0.666667 0.750000 0.000000 
0.583333 0.750000 0.000000 
0.583333 0.666667 0.000000 
0.666667 0.833333 0.000000 
0.583333 0.833333 0.000000 
0.583333 0.750000 0.000000 
0.666667 0.750000 0.000000 
0.500000 0.833333 0.000000 
0.500000 0.750000 0.000000 
0.583333 0.750000 0.000000 
0.583333 0.833333 0.000000 
0.833333 0.666667 0.000000 
0.833333 0.750000 0.000000 
0.750000 0.750000 0.000000 
0.750000 0.666667 0.000000 
0.833333 0.833333 0.000000 
0.750000 0.833333 0.000000 
0.750000 0.750000 0.000000 
0.833333 0.750000 0.000000 
0.666667 0.833333 0.000000 
0.666667 0.750000 0.000000 
0.750000 0.750000 0.000000 
0.750000 0.833333 0.000000 
1.000000 0.666667 0.000000 
1.000000 0.750000 0.000000 
0.916667 0.750000 0.000000 
0.916667 0.666667 0.000000 
1.000000 0.833333 0.000000 
0.916667 0.833333 0.000000 
0.916667 0.750000 0.000000 
1.000000 0.750000 0.000000 
0.833333 0.833333 0.000000 
0.833333 0.750000 0.000000 
0.916667 0.750000 0.000000 
0.916667 0.833333 0.000000 
0.166667 0.833333 0.000000 
0.166667 0.916667 0.000000 
0.083333 0.916667 0.000000 
0.083333 0.833333 0.000000 
0.166667 1.000000 0.000000 
0.083333 1.000000 0.000000 
0.083333 0.916667 0.000000 
0.166667 0.916667 0.000000 
0.000000 1.000000 0.000000 
0.000000 0.916667 0.000000 
0.083333 0.916667 0.000000 
0.083333 1.000000 0.000000 
0.333333 0.833333 0.000000 
0.333333 0.916667 0.000000 
0.250000 0.916667 0.000000 
0.250000 0.833333 0.000000 
0.333333 1.000000 0.000000 
0.250000 1.000000 0.000000 
0.250000 0.916667 0.000000 
0.333333 0.916667 0.000000 
0.166667 1.000000 0.000000 
0.166667 0.916667 0.000000 
0.250000 0.916667 0.000000 
0.250000 1.000000 0.000000 
0.500000 0.833333 0.000000 
0.500000 0.916667 0.000000 
0.416667 0.916667 0.000000 
0.416667 0.833333 0.000000 
0.500000 1.000000 0.000000 
0.416667 1.000000 0.000000 
0.416667 0.916667 0.000000 
0.500000 0.916667 0.000000 
0.333333 1.000000 0.000000 
0.333333 0.916667 0.000000 
0.416667 0.916667 0.000000 
0.416667 1.000000 0.000000 
0.666667 0.833333 0.000000 
0.666667 0.916667 0.000000 
0.583333 0.916667 0.000000 
0.583333 0.833333 0.000000 
0.666667 1.000000 0.000000 
0.583333 1.000000 0.000000 
0.583333 0.916667 0.000000 
0.666667 0.916667 0.000000 
0.500000 1.000000 0.000000 
0.500000 0.916667 0.000000 
0.583333 0.916667 0.000000 
0.583333 1.000000 0.000000 
0.833333 0.833333 0.000000 
0.833333 0.916667 0.000000 
0.750000 0.916667 0.000000 
0.750000 0.833333 0.000000 
0.833333 1.000000 0.000000 
0.750000 1.000000 0.000000 
0.750000 0.916667 0.000000 
0.833333 0.916667 0.000000 
0.666667 1.000000 0.000000 
0.666667 0.916667 0.000000 
0.750000 0.916667 0.000000 
0.750000 1.000000 0.000000 
1.000000 0.833333 0.000000 
1.000000 0.916667 0.000000 
0.916667 0.916667 0.000000 
0.916667 0.833333 0.000000 
1.000000 1.000000 0.000000 
0.916667 1.000000 0.000000 
0.916667 0.916667 0.000000 
1.000000 0.916667 0.000000 
0.833333 1.000000 0.000000 
0.833333 0.916667 0.000000 
0.916667 0.916667 0.000000 
0.916667 1.000000 0.000000 
CELLS 144 720 
 4 0 1 2 3  
 4 4 5 6 7  
 4 8 9 10 11  
 4 12 13 14 15  
 4 16 17 18 19  
 4 20 21 22 23  
 4 24 25 26 27  
 4 28 29 30 31  
 4 32 33 34 35  
 4 36 37 38 39  
 4 40 41 42 43  
 4 44 45 46 47  
 4 48 49 50 51  
 4 52 53 54 55  
 4 56 57 58 59  
 4 60 61 62 63  
 4 64 65 66 67  
 4 68 69 70 71  
 4 72 73 74 75  
 4 76 77 78 79  
 4 80 81 82 83  
 4 84 85 86 87  
 4 88 89 90 91  
 4 92 93 94 95  
 4 96 97 98 99  
 4 100 101 102 103  
 4 104 105 106 107  
 4 108 109 110 111  
 4 112 113 114 115  
 4 116 117 118 119  
 4 120 121 122 123  
 4 124 125 126 127  
 4 128 129 130 131  
 4 132 133 134 135  
 4 136 137 138 139  
 4 140 141 142 143  
 4 144 145 146 147  
 4 148 149 150 151  
 4 152 153 154 155  
 4 156 157 158 159  
 4 160 161 162 163  
 4 164 165 166 167  
 4 168 169 170 171  
 4 172 173 174 175  
 4 176 177 178 179  
 4 180 181 182 183  
 4 184 185 186 187  
 4 188 189 190 191  
 4 192 193 194 195  
 4 196 197 198 199  
 4 200 201 202 203  
 4 204 205 206 207  
 4 208 209 210 211  
 4 212 213 214 215  
 4 216 217 218 219  
 4 220 221 222 223  
 4 224 225 226 227  
 4 228 229 230 231  
 4 232 233 234 235  
 4 236 237 238 239  
 4 240 241 242 243  
 4 244 245 246 247  
 4 248 249 250 251  
 4 252 253 254 255  
 4 256 257 258 259  
 4 260 261 262 263  
 4 264 265 266 267  
 4 268 269 270 271  
 4 272 273 274 275  
 4 276 277 278 279  
 4 280 281 282 283  
 4 284 285 286 287  
 4 288 289 290 291  
 4 292 293 294 295  
 4 296 297 298 299  
 4 300 301 302 303  
 4 304 305 306 307  
 4 308 309 310 311  
 4 312 313 314 315  
 4 316 317 318 319  
 4 320 321 322 323  
 4 324 325 326 327  
 4 328 329 330 331  
 4 332 333 334 335  
 4 336 337 338 339  
 4 340 341 342 343  
 4 344 345 346 347  
 4 348 349 350 351  
 4 352 353 354 355  
 4 356 357 358 359  
 4 360 361 362 363  
 4 364 365 366 367  
 4 368 369 370 371  
 4 372 373 374 375  
 4 376 377 378 379  
 4 380 381 382 383  
 4 384 385 386 387  
 4 388 389 390 391  
 4 392 393 394 395  
 4 396 397 398 399  
 4 400 401 402 403  
 4 404 405 406 407  
 4 408 409 410 411  
 4 412 413 414 415  
 4 416 417 418 419  
 4 420 421 422 423  
 4 424 425 426 427  
 4 428 429 430 431  
 4 432 433 434 435  
 4 436 437 438 439  
 4 440 441 442 443  
 4 444 445 446 447  
 4 448 449 450 451  
 4 452 453 454 455  
 4 456 457 458 459  
 4 460 461 462 463  
 4 464 465 466 467  
 4 468 469 470 471  
 4 472 473 474 475  
 4 476 477 478 479  
 4 480 481 482 483  
 4 484 485 486 487  
 4 488 489 490 491  
 4 492 493 494 495  
 4 496 497 498 499  
 4 500 501 502 503  
 4 504 505 506 507  
 4 508 509 510 511  
 4 512 513 514 515  
 4 516 517 518 519  
 4 520 521 522 523  
 4 524 525 526 527  
 4 528 529 530 531  
 4 532 533 534 535  
 4 536 537 538 539  
 4 540 541 542 543  
 4 544 545 546 547  
 4 548 549 550 551  
 4 552 553 554 555  
 4 556 557 558 559  
 4 560 561 562 563  
 4 564 565 566 567  
 4 568 569 570 571  
 4 572 573 574 575  
 
CELL_TYPES 144
7
7
7
7
7
7
7
7
7
7
7
7
7
7
7
7
7
7
7
7
7
7
7
7
7
7
7
7
7
7
7
7
7
7
7
7
7
7
7
7
7
7
7
7
7
7
7
7
7
7
7
7
7
7
7
7
7
7
7
7
7
7
7
7
7
7
7
7
7
7
7
7
7
7
7
7
7
7
7
7
7
7
7
7
7
7
7
7
7
7
7
7
7
7
7
7
7
7
7
7
7
7
7
7
7
7
7
7
7
7
7
7
7
7
7
7
7
7
7
7
7
7
7
7
7
7
7
7
7
7
7
7
7
7
7
7
7
7
7
7
7
7
7
7
CELL_DATA 144
FIELD FieldData 1
material 1 144 int
1
1
1
1
1
1
1
1
1
1
1
1
1
1
1
1
1
1
1
1
1
1
1
1
1
1
1
1
1
1
1
1
1
1
1
1
1
1
1
1
1
1
1
1
1
1
1
1
1
1
1
1
1
1
1
1
1
1
1
1
1
1
1
1
1
1
1
1
1
1
1
1
1
1
1
1
1
1
1
1
1
1
1
1
1
1
1
1
1
1
1
1
1
1
1
1
1
1
1
1
1
1
1
1
1
1
1
1
1
1
1
1
1
1
1
1
1
1
1
1
1
1
1
1
1
1
1
1
1
1
1
1
1
1
1
1
1
1
1
1
1
1
1
1
POINT_DATA 576 SCALARS flux_g1 double 
LOOKUP_TABLE   default 
0.003977
0.088612
3.308998
0.088612
0.122858
0.088538
3.437427
4.768410
0.000830
-0.089567
-3.308918
-0.087940
-0.128299
-0.090384
-3.436255
-4.770283
0.001388
0.088544
3.311093
0.091827
0.123384
0.088760
3.435568
4.768331
0.122858
4.768410
3.437427
0.088538
6.860010
4.936421
3.546114
4.936421
-0.115431
-4.764679
-3.432159
-0.078011
-6.857068
-4.931658
-3.542735
-4.931587
0.120732
4.770024
3.435213
0.078781
6.859490
4.934109
3.547032
4.935981
0.000830
-0.087940
-3.308918
-0.089567
-0.115431
-0.078011
-3.432159
-4.764679
-0.008927
0.087281
3.305548
0.087281
0.117753
0.077501
3.430178
4.763018
0.005324
-0.088351
-3.307684
-0.089049
-0.115712
-0.077510
-3.432835
-4.764595
-0.128299
-4.770283
-3.436255
-0.090384
-6.857068
-4.931587
-3.542735
-4.931658
0.117753
4.763018
3.430178
0.077501
6.852507
4.929035
3.540570
4.929035
-0.117483
-4.765371
-3.432338
-0.078772
-6.856726
-4.935089
-3.545444
-4.931579
0.001388
0.091827
3.311093
0.088544
0.120732
0.078781
3.435213
4.770024
0.005324
-0.089049
-3.307684
-0.088351
-0.117483
-0.078772
-3.432338
-4.765371
-0.008758
0.088370
3.310128
0.088370
0.120496
0.081458
3.435382
4.769634
0.123384
4.768331
3.435568
0.088760
6.859490
4.935981
3.547032
4.934109
-0.115712
-4.764595
-3.432835
-0.077510
-6.856726
-4.931579
-3.545444
-4.935089
0.120496
4.769634
3.435382
0.081458
6.858931
4.933994
3.546871
4.933994
0.123384
4.768331
3.435568
0.088760
6.858931
4.933994
3.546871
4.933994
0.123384
0.088760
3.435568
4.768331
0.001388
0.091827
3.311093
0.088544
0.120496
4.769634
3.435382
0.081458
6.859490
4.934109
3.547032
4.935981
-0.128299
-4.770283
-3.436255
-0.090384
-6.856726
-4.931579
-3.545444
-4.935089
-0.115712
-0.077510
-3.432835
-4.764595
0.000830
-0.087940
-3.308918
-0.089567
-0.115712
-4.764595
-3.432835
-0.077510
-6.856726
-4.935089
-3.545444
-4.931579
0.122858
4.768410
3.437427
0.088538
6.859490
4.935981
3.547032
4.934109
0.120496
0.081458
3.435382
4.769634
0.003977
0.088612
3.308998
0.088612
0.123384
4.768331
3.435568
0.088760
6.858931
4.933994
3.546871
4.933994
6.859490
4.935981
3.547032
4.934109
0.120496
0.081458
3.435382
4.769634
0.001388
0.088544
3.311093
0.091827
0.120732
0.078781
3.435213
4.770024
-0.008758
0.088370
3.310128
0.088370
0.120732
4.770024
3.435213
0.078781
-6.857068
-4.931587
-3.542735
-4.931658
-0.117483
-0.078772
-3.432338
-4.765371
0.005324
-0.088351
-3.307684
-0.089049
-0.115431
-0.078011
-3.432159
-4.764679
0.005324
-0.089049
-3.307684
-0.088351
-0.117483
-4.765371
-3.432338
-0.078772
6.860010
4.936421
3.546114
4.936421
0.120732
0.078781
3.435213
4.770024
-0.008758
0.088370
3.310128
0.088370
0.122858
0.088538
3.437427
4.768410
0.001388
0.091827
3.311093
0.088544
0.120496
4.769634
3.435382
0.081458
-0.115712
-4.764595
-3.432835
-0.077510
-6.856726
-4.935089
-3.545444
-4.931579
-0.128299
-0.090384
-3.436255
-4.770283
0.005324
-0.089049
-3.307684
-0.088351
-0.117483
-4.765371
-3.432338
-0.078772
-6.857068
-4.931658
-3.542735
-4.931587
0.117753
4.763018
3.430178
0.077501
6.852507
4.929035
3.540570
4.929035
0.117753
0.077501
3.430178
4.763018
-0.008927
0.087281
3.305548
0.087281
0.117753
4.763018
3.430178
0.077501
6.852507
4.929035
3.540570
4.929035
-0.115431
-4.764679
-3.432159
-0.078011
-6.857068
-4.931587
-3.542735
-4.931658
-0.117483
-0.078772
-3.432338
-4.765371
0.000830
-0.089567
-3.308918
-0.087940
-0.128299
-4.770283
-3.436255
-0.090384
-6.856726
-4.931579
-3.545444
-4.935089
-6.856726
-4.931579
-3.545444
-4.935089
-0.115712
-0.077510
-3.432835
-4.764595
0.000830
-0.089567
-3.308918
-0.087940
-0.117483
-0.078772
-3.432338
-4.765371
0.005324
-0.088351
-3.307684
-0.089049
-0.115431
-4.764679
-3.432159
-0.078011
6.852507
4.929035
3.540570
4.929035
0.117753
0.077501
3.430178
4.763018
-0.008927
0.087281
3.305548
0.087281
0.117753
0.077501
3.430178
4.763018
-0.008927
0.087281
3.305548
0.087281
0.117753
4.763018
3.430178
0.077501
-6.857068
-4.931658
-3.542735
-4.931587
-0.115431
-0.078011
-3.432159
-4.764679
0.005324
-0.089049
-3.307684
-0.088351
-0.128299
-0.090384
-3.436255
-4.770283
0.000830
-0.087940
-3.308918
-0.089567
-0.115712
-4.764595
-3.432835
-0.077510
0.120496
4.769634
3.435382
0.081458
6.859490
4.934109
3.547032
4.935981
0.122858
0.088538
3.437427
4.768410
-0.008758
0.088370
3.310128
0.088370
0.120732
4.770024
3.435213
0.078781
6.860010
4.936421
3.546114
4.936421
-0.117483
-4.765371
-3.432338
-0.078772
-6.857068
-4.931658
-3.542735
-4.931587
-0.115431
-0.078011
-3.432159
-4.764679
0.005324
-0.088351
-3.307684
-0.089049
-0.115431
-4.764679
-3.432159
-0.078011
-6.857068
-4.931587
-3.542735
-4.931658
0.120732
4.770024
3.435213
0.078781
6.860010
4.936421
3.546114
4.936421
0.120732
0.078781
3.435213
4.770024
0.001388
0.088544
3.311093
0.091827
0.122858
4.768410
3.437427
0.088538
6.859490
4.935981
3.547032
4.934109
6.858931
4.933994
3.546871
4.933994
0.123384
0.088760
3.435568
4.768331
0.003977
0.088612
3.308998
0.088612
0.120496
0.081458
3.435382
4.769634
0.001388
0.088544
3.311093
0.091827
0.122858
4.768410
3.437427
0.088538
-6.856726
-4.935089
-3.545444
-4.931579
-0.128299
-0.090384
-3.436255
-4.770283
0.000830
-0.087940
-3.308918
-0.089567
-0.115712
-0.077510
-3.432835
-4.764595
0.000830
-0.089567
-3.308918
-0.087940
-0.128299
-4.770283
-3.436255
-0.090384
6.859490
4.934109
3.547032
4.935981
0.122858
0.088538
3.437427
4.768410
0.001388
0.091827
3.311093
0.088544
0.123384
0.088760
3.435568
4.768331
0.003977
0.088612
3.308998
0.088612
0.123384
4.768331
3.435568
0.088760
 
