# vtk DataFile Version 3.0 
Date: 3/9/2016   Time: 10:15
ASCII 
DATASET UNSTRUCTURED_GRID 
 
POINTS 16 float 
0.000000 0.000000 0.000000 
0.500000 0.000000 0.000000 
0.500000 0.500000 0.000000 
0.000000 0.500000 0.000000 
0.500000 0.000000 0.000000 
1.000000 0.000000 0.000000 
1.000000 0.500000 0.000000 
0.500000 0.500000 0.000000 
0.000000 0.500000 0.000000 
0.500000 0.500000 0.000000 
0.500000 1.000000 0.000000 
0.000000 1.000000 0.000000 
0.500000 0.500000 0.000000 
1.000000 0.500000 0.000000 
1.000000 1.000000 0.000000 
0.500000 1.000000 0.000000 
CELLS 4 20 
 4 0 1 2 3  
 4 4 5 6 7  
 4 8 9 10 11  
 4 12 13 14 15  
 
CELL_TYPES 4
7
7
7
7
CELL_DATA 4
FIELD FieldData 1
material 1 4 int
1
1
1
1
POINT_DATA 16 SCALARS flux_g1 double 
LOOKUP_TABLE   default 
0.003953
-0.001970
-0.001970
0.003953
-0.000006
0.000003
0.000003
-0.000006
0.003959
-0.001973
-0.001965
0.003942
-0.000006
0.000003
0.000003
-0.000005
 
