# vtk DataFile Version 3.0 
Date: 3/9/2016   Time: 10:5
ASCII 
DATASET UNSTRUCTURED_GRID 
 
POINTS 4096 float 
0.000000 0.000000 0.000000 
0.031250 0.000000 0.000000 
0.031250 0.031250 0.000000 
0.000000 0.031250 0.000000 
0.031250 0.000000 0.000000 
0.062500 0.000000 0.000000 
0.062500 0.031250 0.000000 
0.031250 0.031250 0.000000 
0.062500 0.000000 0.000000 
0.093750 0.000000 0.000000 
0.093750 0.031250 0.000000 
0.062500 0.031250 0.000000 
0.093750 0.000000 0.000000 
0.125000 0.000000 0.000000 
0.125000 0.031250 0.000000 
0.093750 0.031250 0.000000 
0.125000 0.000000 0.000000 
0.156250 0.000000 0.000000 
0.156250 0.031250 0.000000 
0.125000 0.031250 0.000000 
0.156250 0.000000 0.000000 
0.187500 0.000000 0.000000 
0.187500 0.031250 0.000000 
0.156250 0.031250 0.000000 
0.187500 0.000000 0.000000 
0.218750 0.000000 0.000000 
0.218750 0.031250 0.000000 
0.187500 0.031250 0.000000 
0.218750 0.000000 0.000000 
0.250000 0.000000 0.000000 
0.250000 0.031250 0.000000 
0.218750 0.031250 0.000000 
0.250000 0.000000 0.000000 
0.281250 0.000000 0.000000 
0.281250 0.031250 0.000000 
0.250000 0.031250 0.000000 
0.281250 0.000000 0.000000 
0.312500 0.000000 0.000000 
0.312500 0.031250 0.000000 
0.281250 0.031250 0.000000 
0.312500 0.000000 0.000000 
0.343750 0.000000 0.000000 
0.343750 0.031250 0.000000 
0.312500 0.031250 0.000000 
0.343750 0.000000 0.000000 
0.375000 0.000000 0.000000 
0.375000 0.031250 0.000000 
0.343750 0.031250 0.000000 
0.375000 0.000000 0.000000 
0.406250 0.000000 0.000000 
0.406250 0.031250 0.000000 
0.375000 0.031250 0.000000 
0.406250 0.000000 0.000000 
0.437500 0.000000 0.000000 
0.437500 0.031250 0.000000 
0.406250 0.031250 0.000000 
0.437500 0.000000 0.000000 
0.468750 0.000000 0.000000 
0.468750 0.031250 0.000000 
0.437500 0.031250 0.000000 
0.468750 0.000000 0.000000 
0.500000 0.000000 0.000000 
0.500000 0.031250 0.000000 
0.468750 0.031250 0.000000 
0.500000 0.000000 0.000000 
0.531250 0.000000 0.000000 
0.531250 0.031250 0.000000 
0.500000 0.031250 0.000000 
0.531250 0.000000 0.000000 
0.562500 0.000000 0.000000 
0.562500 0.031250 0.000000 
0.531250 0.031250 0.000000 
0.562500 0.000000 0.000000 
0.593750 0.000000 0.000000 
0.593750 0.031250 0.000000 
0.562500 0.031250 0.000000 
0.593750 0.000000 0.000000 
0.625000 0.000000 0.000000 
0.625000 0.031250 0.000000 
0.593750 0.031250 0.000000 
0.625000 0.000000 0.000000 
0.656250 0.000000 0.000000 
0.656250 0.031250 0.000000 
0.625000 0.031250 0.000000 
0.656250 0.000000 0.000000 
0.687500 0.000000 0.000000 
0.687500 0.031250 0.000000 
0.656250 0.031250 0.000000 
0.687500 0.000000 0.000000 
0.718750 0.000000 0.000000 
0.718750 0.031250 0.000000 
0.687500 0.031250 0.000000 
0.718750 0.000000 0.000000 
0.750000 0.000000 0.000000 
0.750000 0.031250 0.000000 
0.718750 0.031250 0.000000 
0.750000 0.000000 0.000000 
0.781250 0.000000 0.000000 
0.781250 0.031250 0.000000 
0.750000 0.031250 0.000000 
0.781250 0.000000 0.000000 
0.812500 0.000000 0.000000 
0.812500 0.031250 0.000000 
0.781250 0.031250 0.000000 
0.812500 0.000000 0.000000 
0.843750 0.000000 0.000000 
0.843750 0.031250 0.000000 
0.812500 0.031250 0.000000 
0.843750 0.000000 0.000000 
0.875000 0.000000 0.000000 
0.875000 0.031250 0.000000 
0.843750 0.031250 0.000000 
0.875000 0.000000 0.000000 
0.906250 0.000000 0.000000 
0.906250 0.031250 0.000000 
0.875000 0.031250 0.000000 
0.906250 0.000000 0.000000 
0.937500 0.000000 0.000000 
0.937500 0.031250 0.000000 
0.906250 0.031250 0.000000 
0.937500 0.000000 0.000000 
0.968750 0.000000 0.000000 
0.968750 0.031250 0.000000 
0.937500 0.031250 0.000000 
0.968750 0.000000 0.000000 
1.000000 0.000000 0.000000 
1.000000 0.031250 0.000000 
0.968750 0.031250 0.000000 
0.000000 0.031250 0.000000 
0.031250 0.031250 0.000000 
0.031250 0.062500 0.000000 
0.000000 0.062500 0.000000 
0.031250 0.031250 0.000000 
0.062500 0.031250 0.000000 
0.062500 0.062500 0.000000 
0.031250 0.062500 0.000000 
0.062500 0.031250 0.000000 
0.093750 0.031250 0.000000 
0.093750 0.062500 0.000000 
0.062500 0.062500 0.000000 
0.093750 0.031250 0.000000 
0.125000 0.031250 0.000000 
0.125000 0.062500 0.000000 
0.093750 0.062500 0.000000 
0.125000 0.031250 0.000000 
0.156250 0.031250 0.000000 
0.156250 0.062500 0.000000 
0.125000 0.062500 0.000000 
0.156250 0.031250 0.000000 
0.187500 0.031250 0.000000 
0.187500 0.062500 0.000000 
0.156250 0.062500 0.000000 
0.187500 0.031250 0.000000 
0.218750 0.031250 0.000000 
0.218750 0.062500 0.000000 
0.187500 0.062500 0.000000 
0.218750 0.031250 0.000000 
0.250000 0.031250 0.000000 
0.250000 0.062500 0.000000 
0.218750 0.062500 0.000000 
0.250000 0.031250 0.000000 
0.281250 0.031250 0.000000 
0.281250 0.062500 0.000000 
0.250000 0.062500 0.000000 
0.281250 0.031250 0.000000 
0.312500 0.031250 0.000000 
0.312500 0.062500 0.000000 
0.281250 0.062500 0.000000 
0.312500 0.031250 0.000000 
0.343750 0.031250 0.000000 
0.343750 0.062500 0.000000 
0.312500 0.062500 0.000000 
0.343750 0.031250 0.000000 
0.375000 0.031250 0.000000 
0.375000 0.062500 0.000000 
0.343750 0.062500 0.000000 
0.375000 0.031250 0.000000 
0.406250 0.031250 0.000000 
0.406250 0.062500 0.000000 
0.375000 0.062500 0.000000 
0.406250 0.031250 0.000000 
0.437500 0.031250 0.000000 
0.437500 0.062500 0.000000 
0.406250 0.062500 0.000000 
0.437500 0.031250 0.000000 
0.468750 0.031250 0.000000 
0.468750 0.062500 0.000000 
0.437500 0.062500 0.000000 
0.468750 0.031250 0.000000 
0.500000 0.031250 0.000000 
0.500000 0.062500 0.000000 
0.468750 0.062500 0.000000 
0.500000 0.031250 0.000000 
0.531250 0.031250 0.000000 
0.531250 0.062500 0.000000 
0.500000 0.062500 0.000000 
0.531250 0.031250 0.000000 
0.562500 0.031250 0.000000 
0.562500 0.062500 0.000000 
0.531250 0.062500 0.000000 
0.562500 0.031250 0.000000 
0.593750 0.031250 0.000000 
0.593750 0.062500 0.000000 
0.562500 0.062500 0.000000 
0.593750 0.031250 0.000000 
0.625000 0.031250 0.000000 
0.625000 0.062500 0.000000 
0.593750 0.062500 0.000000 
0.625000 0.031250 0.000000 
0.656250 0.031250 0.000000 
0.656250 0.062500 0.000000 
0.625000 0.062500 0.000000 
0.656250 0.031250 0.000000 
0.687500 0.031250 0.000000 
0.687500 0.062500 0.000000 
0.656250 0.062500 0.000000 
0.687500 0.031250 0.000000 
0.718750 0.031250 0.000000 
0.718750 0.062500 0.000000 
0.687500 0.062500 0.000000 
0.718750 0.031250 0.000000 
0.750000 0.031250 0.000000 
0.750000 0.062500 0.000000 
0.718750 0.062500 0.000000 
0.750000 0.031250 0.000000 
0.781250 0.031250 0.000000 
0.781250 0.062500 0.000000 
0.750000 0.062500 0.000000 
0.781250 0.031250 0.000000 
0.812500 0.031250 0.000000 
0.812500 0.062500 0.000000 
0.781250 0.062500 0.000000 
0.812500 0.031250 0.000000 
0.843750 0.031250 0.000000 
0.843750 0.062500 0.000000 
0.812500 0.062500 0.000000 
0.843750 0.031250 0.000000 
0.875000 0.031250 0.000000 
0.875000 0.062500 0.000000 
0.843750 0.062500 0.000000 
0.875000 0.031250 0.000000 
0.906250 0.031250 0.000000 
0.906250 0.062500 0.000000 
0.875000 0.062500 0.000000 
0.906250 0.031250 0.000000 
0.937500 0.031250 0.000000 
0.937500 0.062500 0.000000 
0.906250 0.062500 0.000000 
0.937500 0.031250 0.000000 
0.968750 0.031250 0.000000 
0.968750 0.062500 0.000000 
0.937500 0.062500 0.000000 
0.968750 0.031250 0.000000 
1.000000 0.031250 0.000000 
1.000000 0.062500 0.000000 
0.968750 0.062500 0.000000 
0.000000 0.062500 0.000000 
0.031250 0.062500 0.000000 
0.031250 0.093750 0.000000 
0.000000 0.093750 0.000000 
0.031250 0.062500 0.000000 
0.062500 0.062500 0.000000 
0.062500 0.093750 0.000000 
0.031250 0.093750 0.000000 
0.062500 0.062500 0.000000 
0.093750 0.062500 0.000000 
0.093750 0.093750 0.000000 
0.062500 0.093750 0.000000 
0.093750 0.062500 0.000000 
0.125000 0.062500 0.000000 
0.125000 0.093750 0.000000 
0.093750 0.093750 0.000000 
0.125000 0.062500 0.000000 
0.156250 0.062500 0.000000 
0.156250 0.093750 0.000000 
0.125000 0.093750 0.000000 
0.156250 0.062500 0.000000 
0.187500 0.062500 0.000000 
0.187500 0.093750 0.000000 
0.156250 0.093750 0.000000 
0.187500 0.062500 0.000000 
0.218750 0.062500 0.000000 
0.218750 0.093750 0.000000 
0.187500 0.093750 0.000000 
0.218750 0.062500 0.000000 
0.250000 0.062500 0.000000 
0.250000 0.093750 0.000000 
0.218750 0.093750 0.000000 
0.250000 0.062500 0.000000 
0.281250 0.062500 0.000000 
0.281250 0.093750 0.000000 
0.250000 0.093750 0.000000 
0.281250 0.062500 0.000000 
0.312500 0.062500 0.000000 
0.312500 0.093750 0.000000 
0.281250 0.093750 0.000000 
0.312500 0.062500 0.000000 
0.343750 0.062500 0.000000 
0.343750 0.093750 0.000000 
0.312500 0.093750 0.000000 
0.343750 0.062500 0.000000 
0.375000 0.062500 0.000000 
0.375000 0.093750 0.000000 
0.343750 0.093750 0.000000 
0.375000 0.062500 0.000000 
0.406250 0.062500 0.000000 
0.406250 0.093750 0.000000 
0.375000 0.093750 0.000000 
0.406250 0.062500 0.000000 
0.437500 0.062500 0.000000 
0.437500 0.093750 0.000000 
0.406250 0.093750 0.000000 
0.437500 0.062500 0.000000 
0.468750 0.062500 0.000000 
0.468750 0.093750 0.000000 
0.437500 0.093750 0.000000 
0.468750 0.062500 0.000000 
0.500000 0.062500 0.000000 
0.500000 0.093750 0.000000 
0.468750 0.093750 0.000000 
0.500000 0.062500 0.000000 
0.531250 0.062500 0.000000 
0.531250 0.093750 0.000000 
0.500000 0.093750 0.000000 
0.531250 0.062500 0.000000 
0.562500 0.062500 0.000000 
0.562500 0.093750 0.000000 
0.531250 0.093750 0.000000 
0.562500 0.062500 0.000000 
0.593750 0.062500 0.000000 
0.593750 0.093750 0.000000 
0.562500 0.093750 0.000000 
0.593750 0.062500 0.000000 
0.625000 0.062500 0.000000 
0.625000 0.093750 0.000000 
0.593750 0.093750 0.000000 
0.625000 0.062500 0.000000 
0.656250 0.062500 0.000000 
0.656250 0.093750 0.000000 
0.625000 0.093750 0.000000 
0.656250 0.062500 0.000000 
0.687500 0.062500 0.000000 
0.687500 0.093750 0.000000 
0.656250 0.093750 0.000000 
0.687500 0.062500 0.000000 
0.718750 0.062500 0.000000 
0.718750 0.093750 0.000000 
0.687500 0.093750 0.000000 
0.718750 0.062500 0.000000 
0.750000 0.062500 0.000000 
0.750000 0.093750 0.000000 
0.718750 0.093750 0.000000 
0.750000 0.062500 0.000000 
[...]
CELL_DATA 1024
FIELD FieldData 1
material 1 1024 int
1
1
1
1
1
1
1
1
1
1
1
1
1
1
1
1
1
1
1
1
1
1
1
1
1
1
1
1
1
1
1
1
1
1
1
1
1
1
1
1
1
1
1
1
1
1
1
1
1
1
1
1
1
1
1
1
1
1
1
1
1
1
1
1
1
1
1
1
1
1
1
1
1
1
1
1
1
1
1
1
1
1
1
1
1
1
1
1
1
1
1
1
1
1
1
1
1
1
1
1
1
1
1
1
1
1
1
1
1
1
1
1
1
1
1
1
1
1
1
1
1
1
1
1
1
1
1
1
1
1
1
1
1
1
1
1
1
1
1
1
1
1
1
1
1
1
1
1
1
1
1
1
1
1
1
1
1
1
1
1
1
1
1
1
1
1
1
1
1
1
1
1
1
1
1
1
1
1
1
1
1
1
1
1
1
1
1
1
1
1
1
1
1
1
1
1
1
1
1
1
1
1
1
1
1
1
1
1
1
1
1
1
1
1
1
1
1
1
1
1
1
1
1
1
1
1
1
1
1
1
1
1
1
1
1
1
1
1
1
1
1
1
1
1
1
1
1
1
1
1
1
1
1
1
1
1
1
1
1
1
1
1
1
1
1
1
1
1
1
1
1
1
1
1
1
1
1
1
1
1
1
1
1
1
1
1
1
1
1
1
1
1
1
1
1
1
1
1
1
1
1
1
1
1
1
1
1
1
1
1
1
1
1
1
1
1
1
1
1
1
1
1
1
1
1
1
1
1
1
1
1
1
1
1
1
1
1
1
1
1
1
1
1
1
1
1
1
1
1
1
1
1
1
1
1
1
1
1
1
1
1
1
1
1
1
1
1
1
1
1
1
1
1
1
1
1
1
1
1
1
1
1
1
1
1
1
1
1
1
1
1
1
1
1
1
1
1
1
1
1
1
1
1
1
1
1
1
1
1
1
1
1
1
1
1
1
1
1
1
1
1
1
1
1
1
1
1
1
1
1
1
1
1
1
1
1
1
1
1
1
1
1
1
1
1
1
1
1
1
1
1
1
1
1
1
1
1
1
1
1
1
1
1
1
1
1
1
1
1
1
1
1
1
1
1
1
1
1
1
1
1
1
1
1
1
1
1
1
1
1
1
1
1
1
1
1
1
1
1
1
1
1
1
1
1
1
1
1
1
1
1
1
1
1
1
1
1
1
1
1
1
1
1
1
1
1
1
1
1
1
1
1
1
1
1
1
1
1
1
1
1
1
1
1
1
1
1
1
1
1
1
1
1
1
1
1
1
1
1
1
1
1
1
1
1
1
1
1
1
1
1
1
1
1
1
1
1
1
1
1
1
1
1
1
1
1
1
1
1
1
1
1
1
1
1
1
1
1
1
1
1
1
1
1
1
1
1
1
1
1
1
1
1
1
1
1
1
1
1
1
1
1
1
1
1
1
1
1
1
1
1
1
1
1
1
1
1
1
1
1
1
1
1
1
1
1
1
1
1
1
1
1
1
1
1
1
1
1
1
1
1
1
1
1
1
1
1
1
1
1
1
1
1
1
1
1
1
1
1
1
1
1
1
1
1
1
1
1
1
1
1
1
1
1
1
1
1
1
1
1
1
1
1
1
1
1
1
1
1
1
1
1
1
1
1
1
1
1
1
1
1
1
1
1
1
1
1
1
1
1
1
1
1
1
1
1
1
1
1
1
1
1
1
1
1
1
1
1
1
1
1
1
1
1
1
1
1
1
1
1
1
1
1
1
1
1
1
1
1
1
1
1
1
1
1
1
1
1
1
1
1
1
1
1
1
1
1
1
1
1
1
1
1
1
1
1
1
1
1
1
1
1
1
1
1
1
1
1
1
1
1
1
1
1
1
1
1
1
1
1
1
1
1
1
1
1
1
1
1
1
1
1
1
1
1
1
1
1
1
1
1
1
1
1
1
1
1
1
1
1
1
1
1
1
1
1
1
1
1
1
1
1
1
1
1
1
1
1
1
1
1
1
1
1
1
1
1
1
1
1
1
1
1
1
1
1
1
1
1
1
1
1
1
1
1
1
1
1
1
1
1
1
1
1
1
1
1
1
1
1
1
1
1
1
1
1
1
1
1
1
1
1
1
1
1
1
1
1
1
1
1
1
1
1
1
1
1
1
1
1
1
1
1
1
1
1
1
1
1
1
1
1
1
1
1
1
1
1
1
1
1
1
1
1
1
1
1
1
1
1
1
1
1
1
1
1
1
1
1
1
1
1
1
1
1
1
1
1
1
1
1
1
1
1
1
1
1
1
1
1
1
1
1
1
1
1
1
1
1
1
1
1
1
1
1
1
1
1
1
1
1
1
1
1
POINT_DATA 4096 SCALARS flux_g1 double 
LOOKUP_TABLE   default 
1.412443
1.293423
1.293423
1.412443
1.291804
1.182950
1.182950
1.291804
1.181469
1.081912
1.081912
1.181469
1.080557
0.989504
0.989504
1.080557
0.988265
0.904989
0.904989
0.988265
0.903856
0.827693
0.827693
0.903856
0.826656
0.756998
0.756998
0.826656
0.756050
0.692342
0.692342
0.756050
0.691475
0.633208
0.633208
0.691475
0.632415
0.579124
0.579124
0.632415
0.578399
0.529660
0.529660
0.578399
0.528997
0.484421
0.484421
0.528997
0.483815
0.443046
0.443046
0.483815
0.442491
0.405205
0.405205
0.442491
0.404697
0.370596
0.370596
0.404697
0.370131
0.338942
0.338942
0.370131
0.338518
0.309993
0.309993
0.338518
0.309604
0.283516
0.283516
0.309605
0.283161
0.259301
0.259300
0.283162
0.258976
0.237152
0.237148
0.258974
0.236853
0.216893
0.216901
0.236846
0.216617
0.198381
0.198415
0.216629
0.198137
0.181474
0.181454
0.198199
0.181281
0.165924
0.165681
0.181265
0.165735
0.151465
0.151209
0.165367
0.151143
0.138354
0.139120
0.150692
0.137892
0.127582
0.130101
0.138801
0.127401
0.119331
0.121369
0.130728
0.120026
0.110559
0.106368
0.123073
0.112074
0.095619
0.080414
0.108025
0.096911
0.071406
0.047121
0.080533
0.071328
0.041923
0.017134
0.045417
1.412443
1.293423
1.293423
1.412443
1.291804
1.182950
1.182950
1.291804
1.181469
1.081912
1.081912
1.181469
1.080557
0.989504
0.989504
1.080557
0.988265
0.904989
0.904989
0.988265
0.903856
0.827693
0.827693
0.903856
0.826656
0.756998
0.756998
0.826656
0.756050
0.692342
0.692342
0.756050
0.691475
0.633208
0.633208
0.691475
0.632415
0.579124
0.579124
0.632415
0.578399
0.529660
0.529660
0.578399
0.528997
0.484421
0.484421
0.528997
0.483815
0.443046
0.443046
0.483815
0.442491
0.405205
0.405205
0.442491
0.404697
0.370596
0.370596
0.404697
0.370131
0.338942
0.338942
0.370131
0.338518
0.309993
0.309993
0.338518
0.309605
0.283516
0.283515
0.309605
0.283162
0.259299
0.259296
0.283160
0.258973
0.237148
0.237154
0.258966
0.236846
0.216905
0.216940
0.236856
0.216636
0.198418
0.198408
0.216700
0.198205
0.181431
0.181185
0.198206
0.181230
0.165638
0.165335
0.180856
0.165296
0.151265
0.152015
0.164773
0.150757
0.139400
0.142102
0.151638
0.139177
0.130361
0.132700
0.142758
0.131102
0.120914
0.116535
0.134582
0.122592
0.104757
0.088188
0.118399
0.106211
0.078271
0.051540
0.088338
0.078197
0.045826
0.018509
0.049643
0.044134
0.017495
-0.000877
0.015924
1.412443
1.293423
1.293423
1.412443
1.291804
1.182950
1.182950
1.291804
1.181469
1.081912
1.081912
1.181469
1.080557
0.989504
0.989504
1.080557
0.988265
0.904989
0.904989
0.988265
0.903856
0.827693
0.827693
0.903856
0.826656
0.756998
0.756998
0.826656
0.756050
0.692342
0.692342
0.756050
0.691475
0.633208
0.633208
0.691475
0.632415
0.579124
0.579124
0.632415
0.578399
0.529660
0.529660
0.578399
0.528997
0.484421
0.484421
0.528997
0.483815
0.443046
0.443046
0.483815
0.442491
0.405205
0.405205
0.442491
0.404697
0.370596
0.370596
0.404697
0.370131
0.338942
0.338943
0.370131
0.338518
0.309993
0.309993
0.338519
0.309605
0.283515
0.283511
0.309605
0.283159
0.259295
0.259300
0.283152
0.258966
0.237158
0.237194
0.258971
0.236862
0.216944
0.216945
0.236927
0.216708
0.198386
0.198141
0.216727
0.198172
0.181137
0.180786
0.197797
0.180777
0.165385
0.166108
0.180176
0.164829
0.152313
0.155203
0.165665
0.152040
0.142404
0.145082
0.155885
0.143192
0.132234
0.127678
0.147158
0.134091
0.114773
0.096724
0.129776
0.116410
0.085805
0.056376
0.096913
0.085736
0.050093
0.019981
0.054261
0.048208
0.018917
-0.001204
0.017107
0.016539
0.000796
-0.006634
-0.003070
1.412443
1.293423
1.293423
1.412443
1.291804
1.182950
1.182950
1.291804
1.181469
1.081912
1.081912
1.181469
1.080557
0.989504
0.989504
1.080557
0.988265
0.904989
0.904989
0.988265
0.903856
0.827693
0.827693
0.903856
0.826656
0.756998
0.756998
0.826656
0.756050
0.692342
0.692342
0.756050
0.691475
0.633208
0.633208
0.691475
0.632415
0.579124
0.579124
0.632415
0.578399
0.529660
0.529660
0.578399
0.528997
0.484421
0.484421
0.528997
0.483815
0.443046
0.443046
0.483815
0.442491
0.405205
0.405205
0.442491
0.404697
0.370596
0.370596
0.404697
0.370131
0.338943
0.338942
0.370132
0.338519
0.309992
0.309989
0.338518
0.309604
0.283511
0.283513
0.309596
0.283151
0.259303
0.259338
0.283153
0.258978
0.237199
0.237211
0.259043
0.236937
0.216924
0.216683
0.236975
0.216695
0.198087
0.197687
0.216325
0.197709
0.180828
0.181511
0.197026
0.180219
0.166424
0.169503
0.180992
0.166093
0.155552
0.158608
0.170208
0.156386
0.144607
0.139892
0.160898
0.146663
0.125753
0.106101
0.142254
0.127596
0.094074
0.061667
0.106335
0.094012
0.054756
0.021555
0.059308
0.052655
0.020443
-0.001591
0.018359
0.017805
0.000667
-0.007285
-0.003633
-0.001003
-0.004873
-0.004188
-0.007714
1.412443
1.293423
1.293423
1.412443
1.291804
1.182950
1.182950
1.291804
1.181469
1.081912
1.081912
1.181469
1.080557
0.989504
0.989504
1.080557
0.988265
0.904989
0.904989
0.988265
0.903856
0.827693
0.827693
0.903856
0.826656
0.756998
0.756998
0.826656
0.756050
0.692342
0.692342
0.756050
0.691475
0.633208
0.633208
0.691475
0.632415
0.579124
0.579124
0.632415
0.578399
0.529660
0.529660
0.578399
0.528997
0.484421
0.484421
0.528997
0.483815
0.443046
0.443046
0.483815
0.442491
0.405205
0.405205
0.442491
0.404697
0.370596
0.370596
0.404698
0.370132
0.338942
0.338939
0.370132
0.338518
0.309988
0.309989
0.338511
0.309595
0.283516
0.283550
0.309594
0.283159
0.259344
0.259368
0.283222
0.259055
0.237192
0.236960
0.259112
0.236947
0.216624
0.216173
0.236588
0.216228
0.197719
0.198347
0.215462
0.197055
0.181844
0.185111
0.197743
0.181446
0.169905
0.173383
0.185833
0.170784
0.158131
0.153278
0.175908
0.160407
0.137790
0.116402
0.155942
0.139867
0.103151
0.067457
0.116692
0.103100
0.059853
0.023235
0.064824
0.057510
0.022079
-0.002048
0.019678
0.019150
0.000502
-0.007995
-0.004282
-0.001320
-0.005342
-0.004432
-0.008426
-0.005761
-0.003352
-0.000528
-0.004006
1.412443
1.293423
1.293423
1.412443
1.291804
1.182950
1.182950
1.291804
1.181469
1.081912
1.081912
1.181469
1.080557
0.989504
0.989504
1.080557
0.988265
0.904989
0.904989
0.988265
0.903856
0.827693
0.827693
0.903856
0.826656
0.756998
0.756998
0.826656
0.756050
0.692342
0.692342
0.756050
0.691475
0.633208
0.633208
0.691475
0.632415
0.579124
0.579124
0.632415
0.578399
0.529660
0.529660
0.578399
0.528997
0.484421
0.484421
0.528997
0.483815
0.443046
0.443046
0.483814
0.442491
0.405205
0.405205
0.442492
0.404698
0.370596
0.370593
0.404698
0.370132
0.338938
0.338937
0.370125
0.338509
0.309991
0.310023
0.338504
0.309598
0.283557
0.283591
0.309658
0.283236
0.259352
0.259132
0.283313
0.259088
0.236896
0.236395
0.258747
0.236483
0.216193
0.216751
0.235631
0.215471
0.198695
0.202147
0.216050
0.198220
0.185572
0.189520
0.202878
0.186494
0.172910
0.167951
0.192302
0.175428
0.150986
0.127722
0.170957
0.153330
0.113118
0.073794
0.128078
0.113081
0.065424
0.025024
0.070853
0.062809
0.023828
-0.002587
0.021063
0.020576
0.000295
-0.008767
-0.005029
-0.001693
-0.005850
-0.004676
-0.009194
-0.006276
-0.003539
-0.000453
-0.004187
-0.003240
-0.000589
0.000798
-0.000065
1.412443
1.293423
1.293423
1.412443
1.291804
1.182950
1.182950
1.291804
1.181469
1.081912
1.081912
1.181469
1.080557
0.989504
0.989504
1.080557
0.988265
0.904989
0.904989
0.988265
0.903856
0.827693
0.827693
0.903856
0.826656
0.756998
0.756998
0.826656
0.756050
0.692342
0.692342
0.756050
0.691475
0.633208
0.633208
0.691475
0.632415
0.579124
0.579124
0.632415
0.578399
0.529660
0.529660
0.578399
0.528997
0.484421
0.484421
0.528997
0.483814
0.443046
0.443046
0.483815
0.442492
0.405205
0.405203
0.442492
0.404698
0.370592
0.370589
0.404693
0.370124
0.338939
0.338967
0.370116
0.338508
0.310030
0.310075
0.338562
0.309673
0.283578
0.283376
0.309769
0.283293
0.259064
0.258515
0.282979
0.258635
0.236401
0.236871
0.257700
0.235619
0.217112
0.220740
0.236060
0.216548
0.202673
0.207141
0.221470
0.203634
0.189058
0.184035
0.210204
0.191844
0.165453
0.140165
0.187429
0.168100
0.124064
0.080729
0.140601
0.124045
0.071513
0.026926
0.077440
0.068592
0.025698
-0.003219
0.022512
0.022085
0.000038
-0.009604
-0.005886
-0.002128
-0.006399
-0.004917
-0.010020
-0.006827
-0.003725
-0.000360
-0.004357
-0.003381
-0.000545
0.000881
0.000054
-0.000254
0.000490
0.000434
0.000939
1.412443
1.293423
1.293423
1.412443
1.291804
1.182950
1.182950
1.291804
1.181469
1.081912
1.081912
1.181469
1.080557
0.989504
0.989504
1.080557
0.988265
0.904989
0.904989
0.988265
0.903856
0.827693
0.827693
0.903856
0.826656
0.756998
0.756998
0.826656
0.756050
0.692342
0.692342
0.756050
0.691475
0.633208
0.633208
0.691475
0.632415
0.579124
0.579124
0.632415
0.578399
0.529660
0.529660
0.578399
0.528997
0.484421
0.484422
0.528997
0.483815
0.443046
0.443045
0.483816
0.442492
0.405202
0.405198
0.442488
0.404691
0.370590
0.370615
0.404680
0.370118
0.338975
0.339029
0.370165
0.338578
0.310065
0.309886
0.338692
0.309756
0.283306
0.282713
0.309477
0.282861
0.258505
0.258869
0.281847
0.257661
0.237242
0.241032
0.257936
0.236576
0.221338
0.226379
0.241747
0.222330
0.206701
0.201665
0.229748
0.209782
0.181317
0.153846
0.205500
0.184308
0.136088
0.088321
0.154379
0.136094
0.078167
0.028941
0.084640
0.074901
0.027691
-0.003960
0.024020
0.023675
-0.000276
-0.010512
-0.006869
-0.002634
-0.006992
-0.005151
-0.010906
-0.007417
-0.003907
-0.000247
-0.004511
-0.003513
-0.000490
0.000966
0.000193
-0.000181
0.000542
0.000433
0.001013
0.000594
0.000302
-0.000020
0.000357
1.412443
1.293423
1.293423
1.412443
1.291804
1.182950
1.182950
1.291804
1.181469
1.081912
1.081912
1.181469
1.080557
0.989504
0.989504
1.080557
0.988265
0.904989
0.904989
0.988265
0.903856
0.827693
0.827693
0.903856
0.826656
0.756998
0.756998
0.826656
0.756050
0.692342
0.692342
0.756050
0.691475
0.633208
0.633208
0.691475
0.632415
0.579124
0.579124
0.632415
0.578399
0.529660
0.529661
0.578399
0.528997
0.484422
0.484420
0.528998
0.483816
0.443044
0.443039
0.483813
0.442486
0.405198
0.405218
0.442474
0.404682
0.370623
0.370684
0.404720
0.370182
0.339023
0.338871
0.370310
0.338685
0.309814
0.309184
0.338451
0.309355
0.282685
0.282922
0.308269
0.281779
0.259245
0.263176
0.281854
0.258463
0.241707
0.247377
0.263860
0.242723
0.225972
0.220990
0.251079
0.229379
0.198711
0.168895
0.225329
0.202096
0.149300
0.096632
0.169544
0.149339
0.085441
0.031069
0.092507
0.081785
0.029811
-0.004826
0.025579
0.025346
-0.000657
-0.011492
-0.007997
-0.003221
-0.007629
-0.005372
-0.011852
-0.008044
-0.004083
-0.000111
-0.004644
-0.003633
-0.000421
0.001052
0.000353
-0.000095
0.000595
0.000427
0.001086
0.000640
0.000301
-0.000040
0.000342
0.000254
0.000003
-0.000083
-0.000075
1.412443
1.293423
1.293423
1.412443
1.291804
1.182950
1.182950
1.291804
1.181469
1.081912
1.081912
1.181469
1.080557
0.989504
0.989504
1.080557
0.988265
0.904989
0.904989
0.988265
0.903856
0.827693
0.827693
0.903856
0.826656
0.756998
0.756998
0.826656
0.756050
0.692342
0.692342
0.756050
0.691475
0.633208
0.633208
0.691475
0.632415
0.579124
0.579125
0.632415
0.578399
0.529661
0.529660
0.578400
0.528998
0.484420
0.484415
0.528997
0.483811
0.443039
0.443053
0.483798
0.442474
0.405226
0.405291
0.442502
0.404737
0.370682
0.370562
0.404875
0.370311
0.338800
0.338141
0.370130
0.338327
0.309136
0.309228
0.337182
0.308169
0.283300
0.287342
0.308010
0.282386
0.263935
0.270291
0.287973
0.264963
0.247019
0.242172
0.274353
0.250784
0.217785
0.185453
0.247086
0.221620
0.163823
0.105733
0.186243
0.163903
0.093390
0.033310
0.101104
0.089293
0.032061
-0.005836
0.027180
0.027094
-0.001116
-0.012547
-0.009287
-0.003900
-0.008312
-0.005575
-0.012860
-0.008708
-0.004248
0.000049
-0.004748
-0.003736
-0.000338
0.001139
0.000535
0.000005
0.000649
0.000415
0.001156
0.000685
0.000296
-0.000060
0.000321
0.000244
-0.000008
-0.000085
-0.000093
-0.000032
-0.000047
-0.000013
-0.000078
1.412443
1.293423
1.293423
1.412443
1.291804
1.182950
1.182950
1.291804
1.181469
1.081912
1.081912
1.181469
1.080557
0.989504
0.989504
1.080557
0.988265
0.904989
0.904989
0.988265
0.903856
0.827693
0.827693
0.903856
0.826656
0.756998
0.756998
0.826656
0.756050
0.692342
0.692342
0.756050
0.691475
0.633208
0.633208
0.691474
0.632415
0.579125
0.579124
0.632415
0.578400
0.529660
0.529655
0.578400
0.528995
0.484414
0.484423
0.528983
0.483797
0.443061
0.443128
0.483815
0.442518
0.405294
0.405209
0.442662
0.404884
0.370493
0.369818
0.404764
0.370008
0.338072
0.337999
0.368820
0.337045
0.309599
0.313715
0.336618
0.308536
0.288190
0.295288
0.314267
0.289214
0.269999
0.265390
0.299739
0.274157
0.238703
0.203680
0.270960
0.243051
0.179791
0.115699
0.204639
0.179923
0.102077
0.035658
0.110498
0.097480
0.034442
-0.007011
0.028808
0.028913
-0.001664
-0.013679
-0.010762
-0.004683
-0.009041
-0.005751
-0.013926
-0.009407
-0.004398
0.000236
-0.004816
-0.003818
-0.000238
0.001225
0.000741
0.000118
0.000701
0.000395
0.001222
0.000727
0.000288
-0.000081
0.000293
0.000230
-0.000021
-0.000085
-0.000112
-0.000043
-0.000048
-0.000009
-0.000076
-0.000045
-0.000009
0.000010
-0.000002
1.412443
1.293423
1.293423
1.412443
1.291804
1.182950
1.182950
1.291804
1.181469
1.081912
1.081912
1.181469
1.080557
0.989504
0.989504
1.080557
0.988265
0.904989
0.904989
0.988265
0.903856
0.827693
0.827693
0.903856
0.826656
0.756998
0.756998
0.826656
0.756050
0.692342
0.692342
0.756050
0.691475
0.633208
0.633208
0.691475
0.632416
0.579124
0.579120
0.632416
0.578399
0.529654
0.529658
0.578387
0.528981
0.484430
0.484495
0.528987
0.483829
0.443134
0.443087
0.483972
0.442678
0.405144
0.404469
0.442627
0.404647
0.369727
0.369472
0.403440
0.368645
0.338356
0.342498
0.367915
0.337128
0.314657
0.322550
0.342937
0.315655
0.295085
0.290837
0.327416
0.299672
0.261643
0.223753
0.297160
0.266581
0.197354
0.126614
0.224918
0.197553
0.111571
0.038106
0.120762
0.106407
0.036951
-0.008377
0.030445
0.030795
-0.002315
-0.014888
-0.012446
-0.005583
-0.009815
-0.005893
-0.015047
-0.010139
-0.004526
0.000450
-0.004838
-0.003873
-0.000122
0.001306
0.000971
0.000246
0.000752
0.000368
0.001280
0.000765
0.000275
-0.000103
0.000258
0.000212
-0.000033
-0.000084
-0.000131
-0.000054
-0.000048
-0.000005
-0.000073
-0.000044
-0.000007
0.000010
0.000002
-0.000003
0.000005
0.000003
0.000010
1.412443
1.293423
1.293423
1.412443
1.291804
1.182950
1.182950
1.291804
1.181469
1.081912
1.081912
1.181469
1.080557
0.989504
0.989504
1.080557
0.988265
0.904989
0.904989
0.988265
0.903856
0.827693
0.827693
0.903856
0.826656
0.756998
0.756998
0.826656
0.756050
0.692342
0.692342
0.756050
0.691475
0.633208
0.633204
0.691476
0.632415
0.579119
0.579119
0.632406
0.578385
0.529663
0.529723
0.578382
0.528999
0.484505
0.484496
0.529135
0.483995
0.443029
0.442370
0.484015
0.442519
0.404356
0.403907
0.441322
0.403226
0.369805
0.373911
0.402163
0.368395
0.343534
0.352271
0.374197
0.344480
0.322461
0.318726
0.357577
0.327516
0.286802
0.245869
0.325911
0.292417
0.216681
0.138573
0.247284
0.216964
0.121947
0.040641
0.131978
0.116137
0.039587
-0.009962
0.032065
0.032727
-0.003086
-0.016174
-0.014367
-0.006615
-0.010632
-0.005988
-0.016218
-0.010897
-0.004627
0.000695
-0.004804
-0.003894
0.000011
0.001380
0.001224
0.000388
0.000799
0.000333
0.001327
0.000797
0.000257
-0.000124
0.000216
0.000190
-0.000046
-0.000081
-0.000148
-0.000064
-0.000047
-0.000001
-0.000068
-0.000042
-0.000005
0.000010
0.000005
-0.000001
0.000005
0.000002
0.000010
0.000005
0.000001
-0.000001
0.000001
1.412443
1.293423
1.293423
1.412443
1.291804
1.182950
1.182950
1.291804
1.181469
1.081912
1.081912
1.181469
1.080557
0.989504
0.989504
1.080557
0.988265
0.904989
0.904989
0.988265
0.903856
0.827693
0.827693
0.903856
0.826656
0.756998
0.756998
0.826656
0.756050
0.692342
0.692340
0.756051
0.691476
0.633204
0.633200
0.691469
0.632403
0.579122
0.579173
0.632392
0.578390
0.529735
0.529762
0.578511
0.529164
0.484446
0.483826
0.529254
0.483922
0.442238
0.441588
0.482769
0.441069
0.404206
0.408199
0.439650
0.402594
0.375043
0.384659
0.408284
0.375901
0.352327
0.349286
0.390429
0.357890
0.314395
0.270253
0.357463
0.320791
0.237960
0.151678
0.271971
0.238347
0.133285
0.043245
0.144232
0.126738
0.042340
-0.011799
0.033636
0.034692
-0.003992
-0.017531
-0.016554
-0.007795
-0.011489
-0.006026
-0.017428
-0.011676
-0.004694
0.000969
-0.004701
-0.003874
0.000162
0.001444
0.001500
0.000543
0.000840
0.000289
0.001361
0.000821
0.000234
-0.000145
0.000166
0.000163
-0.000058
-0.000076
-0.000163
-0.000074
-0.000045
0.000003
-0.000061
-0.000039
-0.000002
0.000010
0.000009
0.000001
0.000005
0.000001
0.000009
0.000005
0.000001
-0.000001
0.000000
0.000001
-0.000000
-0.000000
-0.000001
1.412443
1.293423
1.293423
1.412443
1.291804
1.182950
1.182950
1.291804
1.181469
1.081912
1.081912
1.181469
1.080557
0.989504
0.989504
1.080557
0.988265
0.904989
0.904989
0.988265
0.903856
0.827693
0.827693
0.903856
0.826656
0.756998
0.756997
0.826657
0.756051
0.692339
0.692334
0.756047
0.691466
0.633202
0.633242
0.691451
0.632397
0.579187
0.579244
0.632497
0.578544
0.529723
0.529163
0.578699
0.529180
0.483676
0.482828
0.528113
0.482481
0.441840
0.445633
0.480693
0.440013
0.409422
0.419940
0.445456
0.410149
0.384895
0.382767
0.426188
0.391008
0.344659
0.297152
0.392087
0.351955
0.261399
0.166044
0.299243
0.261919
0.145675
0.045893
0.157619
0.138284
0.045200
-0.013924
0.035115
0.036667
-0.005055
-0.018953
-0.019041
-0.009139
-0.012378
-0.005990
-0.018663
-0.012466
-0.004716
0.001273
-0.004517
-0.003807
0.000330
0.001494
0.001795
0.000709
0.000874
0.000236
0.001376
0.000836
0.000206
-0.000163
0.000109
0.000133
-0.000069
-0.000069
-0.000175
-0.000082
-0.000042
0.000008
-0.000053
-0.000035
0.000000
0.000010
0.000012
0.000003
0.000005
0.000001
0.000008
0.000005
0.000001
-0.000001
-0.000000
0.000000
-0.000000
-0.000000
-0.000001
-0.000000
-0.000000
0.000000
-0.000000
1.412443
1.293423
1.293423
1.412443
1.291804
1.182950
1.182950
1.291804
1.181469
1.081912
1.081912
1.181469
1.080557
0.989504
0.989504
1.080557
0.988265
0.904989
0.904989
0.988265
0.903856
0.827693
0.827692
0.903857
0.826657
0.756997
0.756991
0.826656
0.756045
0.692334
0.692362
0.756028
0.691452
0.633256
0.633335
0.691525