# vtk DataFile Version 3.0 
Date: 3/9/2016   Time: 10:5
ASCII 
DATASET UNSTRUCTURED_GRID 
 
POINTS 64 float 
0.000000 0.000000 0.000000 
0.250000 0.000000 0.000000 
0.250000 0.250000 0.000000 
0.000000 0.250000 0.000000 
0.250000 0.000000 0.000000 
0.500000 0.000000 0.000000 
0.500000 0.250000 0.000000 
0.250000 0.250000 0.000000 
0.500000 0.000000 0.000000 
0.750000 0.000000 0.000000 
0.750000 0.250000 0.000000 
0.500000 0.250000 0.000000 
0.750000 0.000000 0.000000 
1.000000 0.000000 0.000000 
1.000000 0.250000 0.000000 
0.750000 0.250000 0.000000 
0.000000 0.250000 0.000000 
0.250000 0.250000 0.000000 
0.250000 0.500000 0.000000 
0.000000 0.500000 0.000000 
0.250000 0.250000 0.000000 
0.500000 0.250000 0.000000 
0.500000 0.500000 0.000000 
0.250000 0.500000 0.000000 
0.500000 0.250000 0.000000 
0.750000 0.250000 0.000000 
0.750000 0.500000 0.000000 
0.500000 0.500000 0.000000 
0.750000 0.250000 0.000000 
1.000000 0.250000 0.000000 
1.000000 0.500000 0.000000 
0.750000 0.500000 0.000000 
0.000000 0.500000 0.000000 
0.250000 0.500000 0.000000 
0.250000 0.750000 0.000000 
0.000000 0.750000 0.000000 
0.250000 0.500000 0.000000 
0.500000 0.500000 0.000000 
0.500000 0.750000 0.000000 
0.250000 0.750000 0.000000 
0.500000 0.500000 0.000000 
0.750000 0.500000 0.000000 
0.750000 0.750000 0.000000 
0.500000 0.750000 0.000000 
0.750000 0.500000 0.000000 
1.000000 0.500000 0.000000 
1.000000 0.750000 0.000000 
0.750000 0.750000 0.000000 
0.000000 0.750000 0.000000 
0.250000 0.750000 0.000000 
0.250000 1.000000 0.000000 
0.000000 1.000000 0.000000 
0.250000 0.750000 0.000000 
0.500000 0.750000 0.000000 
0.500000 1.000000 0.000000 
0.250000 1.000000 0.000000 
0.500000 0.750000 0.000000 
0.750000 0.750000 0.000000 
0.750000 1.000000 0.000000 
0.500000 1.000000 0.000000 
0.750000 0.750000 0.000000 
1.000000 0.750000 0.000000 
1.000000 1.000000 0.000000 
0.750000 1.000000 0.000000 
CELLS 16 80 
 4 0 1 2 3  
 4 4 5 6 7  
 4 8 9 10 11  
 4 12 13 14 15  
 4 16 17 18 19  
 4 20 21 22 23  
 4 24 25 26 27  
 4 28 29 30 31  
 4 32 33 34 35  
 4 36 37 38 39  
 4 40 41 42 43  
 4 44 45 46 47  
 4 48 49 50 51  
 4 52 53 54 55  
 4 56 57 58 59  
 4 60 61 62 63  
 
CELL_TYPES 16
7
7
7
7
7
7
7
7
7
7
7
7
7
7
7
7
CELL_DATA 16
FIELD FieldData 1
material 1 16 int
1
1
1
1
1
1
1
1
1
1
1
1
1
1
1
1
POINT_DATA 64 SCALARS flux_g1 double 
LOOKUP_TABLE   default 
1.337353
0.689664
0.690741
1.335490
0.649861
0.340899
0.349258
0.661148
0.330229
0.166413
0.107821
0.337785
0.156066
0.043909
-0.010395
0.080019
1.334494
0.692002
0.715452
1.335481
0.668832
0.346340
0.228499
0.707341
0.327619
0.089597
-0.028259
0.162636
0.062791
-0.007256
-0.013251
-0.035507
1.339834
0.721825
0.503817
1.482238
0.697073
0.182232
-0.081067
0.328626
0.119071
-0.018369
-0.016714
-0.082913
-0.019476
-0.004414
0.003703
-0.007703
1.536747
0.367650
-0.263177
0.653677
0.201213
-0.043958
0.000917
-0.185450
-0.033661
-0.001502
0.003248
0.004963
-0.000139
0.000660
-0.000243
0.001982
 
