# vtk DataFile Version 3.0 
Date: 3/9/2016   Time: 10:5
ASCII 
DATASET UNSTRUCTURED_GRID 
 
POINTS 1024 float 
0.000000 0.000000 0.000000 
0.062500 0.000000 0.000000 
0.062500 0.062500 0.000000 
0.000000 0.062500 0.000000 
0.062500 0.000000 0.000000 
0.125000 0.000000 0.000000 
0.125000 0.062500 0.000000 
0.062500 0.062500 0.000000 
0.125000 0.000000 0.000000 
0.187500 0.000000 0.000000 
0.187500 0.062500 0.000000 
0.125000 0.062500 0.000000 
0.187500 0.000000 0.000000 
0.250000 0.000000 0.000000 
0.250000 0.062500 0.000000 
0.187500 0.062500 0.000000 
0.250000 0.000000 0.000000 
0.312500 0.000000 0.000000 
0.312500 0.062500 0.000000 
0.250000 0.062500 0.000000 
0.312500 0.000000 0.000000 
0.375000 0.000000 0.000000 
0.375000 0.062500 0.000000 
0.312500 0.062500 0.000000 
0.375000 0.000000 0.000000 
0.437500 0.000000 0.000000 
0.437500 0.062500 0.000000 
0.375000 0.062500 0.000000 
0.437500 0.000000 0.000000 
0.500000 0.000000 0.000000 
0.500000 0.062500 0.000000 
0.437500 0.062500 0.000000 
0.500000 0.000000 0.000000 
0.562500 0.000000 0.000000 
0.562500 0.062500 0.000000 
0.500000 0.062500 0.000000 
0.562500 0.000000 0.000000 
0.625000 0.000000 0.000000 
0.625000 0.062500 0.000000 
0.562500 0.062500 0.000000 
0.625000 0.000000 0.000000 
0.687500 0.000000 0.000000 
0.687500 0.062500 0.000000 
0.625000 0.062500 0.000000 
0.687500 0.000000 0.000000 
0.750000 0.000000 0.000000 
0.750000 0.062500 0.000000 
0.687500 0.062500 0.000000 
0.750000 0.000000 0.000000 
0.812500 0.000000 0.000000 
0.812500 0.062500 0.000000 
0.750000 0.062500 0.000000 
0.812500 0.000000 0.000000 
0.875000 0.000000 0.000000 
0.875000 0.062500 0.000000 
0.812500 0.062500 0.000000 
0.875000 0.000000 0.000000 
0.937500 0.000000 0.000000 
0.937500 0.062500 0.000000 
0.875000 0.062500 0.000000 
0.937500 0.000000 0.000000 
1.000000 0.000000 0.000000 
1.000000 0.062500 0.000000 
0.937500 0.062500 0.000000 
0.000000 0.062500 0.000000 
0.062500 0.062500 0.000000 
0.062500 0.125000 0.000000 
0.000000 0.125000 0.000000 
0.062500 0.062500 0.000000 
0.125000 0.062500 0.000000 
0.125000 0.125000 0.000000 
0.062500 0.125000 0.000000 
0.125000 0.062500 0.000000 
0.187500 0.062500 0.000000 
0.187500 0.125000 0.000000 
0.125000 0.125000 0.000000 
0.187500 0.062500 0.000000 
0.250000 0.062500 0.000000 
0.250000 0.125000 0.000000 
0.187500 0.125000 0.000000 
0.250000 0.062500 0.000000 
0.312500 0.062500 0.000000 
0.312500 0.125000 0.000000 
0.250000 0.125000 0.000000 
0.312500 0.062500 0.000000 
0.375000 0.062500 0.000000 
0.375000 0.125000 0.000000 
0.312500 0.125000 0.000000 
0.375000 0.062500 0.000000 
0.437500 0.062500 0.000000 
0.437500 0.125000 0.000000 
0.375000 0.125000 0.000000 
0.437500 0.062500 0.000000 
0.500000 0.062500 0.000000 
0.500000 0.125000 0.000000 
0.437500 0.125000 0.000000 
0.500000 0.062500 0.000000 
0.562500 0.062500 0.000000 
0.562500 0.125000 0.000000 
0.500000 0.125000 0.000000 
0.562500 0.062500 0.000000 
0.625000 0.062500 0.000000 
0.625000 0.125000 0.000000 
0.562500 0.125000 0.000000 
0.625000 0.062500 0.000000 
0.687500 0.062500 0.000000 
0.687500 0.125000 0.000000 
0.625000 0.125000 0.000000 
0.687500 0.062500 0.000000 
0.750000 0.062500 0.000000 
0.750000 0.125000 0.000000 
0.687500 0.125000 0.000000 
0.750000 0.062500 0.000000 
0.812500 0.062500 0.000000 
0.812500 0.125000 0.000000 
0.750000 0.125000 0.000000 
0.812500 0.062500 0.000000 
0.875000 0.062500 0.000000 
0.875000 0.125000 0.000000 
0.812500 0.125000 0.000000 
0.875000 0.062500 0.000000 
0.937500 0.062500 0.000000 
0.937500 0.125000 0.000000 
0.875000 0.125000 0.000000 
0.937500 0.062500 0.000000 
1.000000 0.062500 0.000000 
1.000000 0.125000 0.000000 
0.937500 0.125000 0.000000 
0.000000 0.125000 0.000000 
0.062500 0.125000 0.000000 
0.062500 0.187500 0.000000 
0.000000 0.187500 0.000000 
0.062500 0.125000 0.000000 
0.125000 0.125000 0.000000 
0.125000 0.187500 0.000000 
0.062500 0.187500 0.000000 
0.125000 0.125000 0.000000 
0.187500 0.125000 0.000000 
0.187500 0.187500 0.000000 
0.125000 0.187500 0.000000 
0.187500 0.125000 0.000000 
0.250000 0.125000 0.000000 
0.250000 0.187500 0.000000 
0.187500 0.187500 0.000000 
0.250000 0.125000 0.000000 
0.312500 0.125000 0.000000 
0.312500 0.187500 0.000000 
0.250000 0.187500 0.000000 
0.312500 0.125000 0.000000 
0.375000 0.125000 0.000000 
0.375000 0.187500 0.000000 
0.312500 0.187500 0.000000 
0.375000 0.125000 0.000000 
0.437500 0.125000 0.000000 
0.437500 0.187500 0.000000 
0.375000 0.187500 0.000000 
0.437500 0.125000 0.000000 
0.500000 0.125000 0.000000 
0.500000 0.187500 0.000000 
0.437500 0.187500 0.000000 
0.500000 0.125000 0.000000 
0.562500 0.125000 0.000000 
0.562500 0.187500 0.000000 
0.500000 0.187500 0.000000 
0.562500 0.125000 0.000000 
0.625000 0.125000 0.000000 
0.625000 0.187500 0.000000 
0.562500 0.187500 0.000000 
0.625000 0.125000 0.000000 
0.687500 0.125000 0.000000 
0.687500 0.187500 0.000000 
0.625000 0.187500 0.000000 
0.687500 0.125000 0.000000 
0.750000 0.125000 0.000000 
0.750000 0.187500 0.000000 
0.687500 0.187500 0.000000 
0.750000 0.125000 0.000000 
0.812500 0.125000 0.000000 
0.812500 0.187500 0.000000 
0.750000 0.187500 0.000000 
0.812500 0.125000 0.000000 
0.875000 0.125000 0.000000 
0.875000 0.187500 0.000000 
0.812500 0.187500 0.000000 
0.875000 0.125000 0.000000 
0.937500 0.125000 0.000000 
0.937500 0.187500 0.000000 
0.875000 0.187500 0.000000 
0.937500 0.125000 0.000000 
1.000000 0.125000 0.000000 
1.000000 0.187500 0.000000 
0.937500 0.187500 0.000000 
0.000000 0.187500 0.000000 
0.062500 0.187500 0.000000 
0.062500 0.250000 0.000000 
0.000000 0.250000 0.000000 
0.062500 0.187500 0.000000 
0.125000 0.187500 0.000000 
0.125000 0.250000 0.000000 
0.062500 0.250000 0.000000 
0.125000 0.187500 0.000000 
0.187500 0.187500 0.000000 
0.187500 0.250000 0.000000 
0.125000 0.250000 0.000000 
0.187500 0.187500 0.000000 
0.250000 0.187500 0.000000 
0.250000 0.250000 0.000000 
0.187500 0.250000 0.000000 
0.250000 0.187500 0.000000 
0.312500 0.187500 0.000000 
0.312500 0.250000 0.000000 
0.250000 0.250000 0.000000 
0.312500 0.187500 0.000000 
0.375000 0.187500 0.000000 
0.375000 0.250000 0.000000 
0.312500 0.250000 0.000000 
0.375000 0.187500 0.000000 
0.437500 0.187500 0.000000 
0.437500 0.250000 0.000000 
0.375000 0.250000 0.000000 
0.437500 0.187500 0.000000 
0.500000 0.187500 0.000000 
0.500000 0.250000 0.000000 
0.437500 0.250000 0.000000 
0.500000 0.187500 0.000000 
0.562500 0.187500 0.000000 
0.562500 0.250000 0.000000 
0.500000 0.250000 0.000000 
0.562500 0.187500 0.000000 
0.625000 0.187500 0.000000 
0.625000 0.250000 0.000000 
0.562500 0.250000 0.000000 
0.625000 0.187500 0.000000 
0.687500 0.187500 0.000000 
0.687500 0.250000 0.000000 
0.625000 0.250000 0.000000 
0.687500 0.187500 0.000000 
0.750000 0.187500 0.000000 
0.750000 0.250000 0.000000 
0.687500 0.250000 0.000000 
0.750000 0.187500 0.000000 
0.812500 0.187500 0.000000 
0.812500 0.250000 0.000000 
0.750000 0.250000 0.000000 
0.812500 0.187500 0.000000 
0.875000 0.187500 0.000000 
0.875000 0.250000 0.000000 
0.812500 0.250000 0.000000 
0.875000 0.187500 0.000000 
0.937500 0.187500 0.000000 
0.937500 0.250000 0.000000 
0.875000 0.250000 0.000000 
0.937500 0.187500 0.000000 
1.000000 0.187500 0.000000 
1.000000 0.250000 0.000000 
0.937500 0.250000 0.000000 
0.000000 0.250000 0.000000 
0.062500 0.250000 0.000000 
0.062500 0.312500 0.000000 
0.000000 0.312500 0.000000 
0.062500 0.250000 0.000000 
0.125000 0.250000 0.000000 
0.125000 0.312500 0.000000 
0.062500 0.312500 0.000000 
0.125000 0.250000 0.000000 
0.187500 0.250000 0.000000 
0.187500 0.312500 0.000000 
0.125000 0.312500 0.000000 
0.187500 0.250000 0.000000 
0.250000 0.250000 0.000000 
0.250000 0.312500 0.000000 
0.187500 0.312500 0.000000 
0.250000 0.250000 0.000000 
0.312500 0.250000 0.000000 
0.312500 0.312500 0.000000 
0.250000 0.312500 0.000000 
0.312500 0.250000 0.000000 
0.375000 0.250000 0.000000 
0.375000 0.312500 0.000000 
0.312500 0.312500 0.000000 
0.375000 0.250000 0.000000 
0.437500 0.250000 0.000000 
0.437500 0.312500 0.000000 
0.375000 0.312500 0.000000 
0.437500 0.250000 0.000000 
0.500000 0.250000 0.000000 
0.500000 0.312500 0.000000 
0.437500 0.312500 0.000000 
0.500000 0.250000 0.000000 
0.562500 0.250000 0.000000 
0.562500 0.312500 0.000000 
0.500000 0.312500 0.000000 
0.562500 0.250000 0.000000 
0.625000 0.250000 0.000000 
0.625000 0.312500 0.000000 
0.562500 0.312500 0.000000 
0.625000 0.250000 0.000000 
0.687500 0.250000 0.000000 
0.687500 0.312500 0.000000 
0.625000 0.312500 0.000000 
0.687500 0.250000 0.000000 
0.750000 0.250000 0.000000 
0.750000 0.312500 0.000000 
0.687500 0.312500 0.000000 
0.750000 0.250000 0.000000 
0.812500 0.250000 0.000000 
0.812500 0.312500 0.000000 
0.750000 0.312500 0.000000 
0.812500 0.250000 0.000000 
0.875000 0.250000 0.000000 
0.875000 0.312500 0.000000 
0.812500 0.312500 0.000000 
0.875000 0.250000 0.000000 
0.937500 0.250000 0.000000 
0.937500 0.312500 0.000000 
0.875000 0.312500 0.000000 
0.937500 0.250000 0.000000 
1.000000 0.250000 0.000000 
1.000000 0.312500 0.000000 
0.937500 0.312500 0.000000 
0.000000 0.312500 0.000000 
0.062500 0.312500 0.000000 
0.062500 0.375000 0.000000 
0.000000 0.375000 0.000000 
0.062500 0.312500 0.000000 
0.125000 0.312500 0.000000 
0.125000 0.375000 0.000000 
0.062500 0.375000 0.000000 
0.125000 0.312500 0.000000 
0.187500 0.312500 0.000000 
0.187500 0.375000 0.000000 
0.125000 0.375000 0.000000 
0.187500 0.312500 0.000000 
0.250000 0.312500 0.000000 
0.250000 0.375000 0.000000 
0.187500 0.375000 0.000000 
0.250000 0.312500 0.000000 
0.312500 0.312500 0.000000 
0.312500 0.375000 0.000000 
0.250000 0.375000 0.000000 
0.312500 0.312500 0.000000 
0.375000 0.312500 0.000000 
0.375000 0.375000 0.000000 
0.312500 0.375000 0.000000 
0.375000 0.312500 0.000000 
0.437500 0.312500 0.000000 
0.437500 0.375000 0.000000 
0.375000 0.375000 0.000000 
0.437500 0.312500 0.000000 
0.500000 0.312500 0.000000 
0.500000 0.375000 0.000000 
0.437500 0.375000 0.000000 
0.500000 0.312500 0.000000 
[...]
CELL_DATA 256
FIELD FieldData 1
material 1 256 int
1
1
1
1
1
1
1
1
1
1
1
1
1
1
1
1
1
1
1
1
1
1
1
1
1
1
1
1
1
1
1
1
1
1
1
1
1
1
1
1
1
1
1
1
1
1
1
1
1
1
1
1
1
1
1
1
1
1
1
1
1
1
1
1
1
1
1
1
1
1
1
1
1
1
1
1
1
1
1
1
1
1
1
1
1
1
1
1
1
1
1
1
1
1
1
1
1
1
1
1
1
1
1
1
1
1
1
1
1
1
1
1
1
1
1
1
1
1
1
1
1
1
1
1
1
1
1
1
1
1
1
1
1
1
1
1
1
1
1
1
1
1
1
1
1
1
1
1
1
1
1
1
1
1
1
1
1
1
1
1
1
1
1
1
1
1
1
1
1
1
1
1
1
1
1
1
1
1
1
1
1
1
1
1
1
1
1
1
1
1
1
1
1
1
1
1
1
1
1
1
1
1
1
1
1
1
1
1
1
1
1
1
1
1
1
1
1
1
1
1
1
1
1
1
1
1
1
1
1
1
1
1
1
1
1
1
1
1
1
1
1
1
1
1
1
1
1
1
1
1
1
1
1
1
1
1
POINT_DATA 1024 SCALARS flux_g1 double 
LOOKUP_TABLE   default 
1.407530
1.182936
1.182936
1.407530
1.177345
0.989481
0.989481
1.177345
0.984805
0.827663
0.827663
0.984805
0.823752
0.692309
0.692309
0.823752
0.689037
0.579090
0.579090
0.689037
0.576354
0.484387
0.484385
0.576354
0.482098
0.405169
0.405172
0.482092
0.403248
0.338918
0.338953
0.403258
0.337329
0.283528
0.283429
0.337418
0.282249
0.236985
0.236570
0.282046
0.235742
0.197853
0.198630
0.234915
0.196452
0.166724
0.170372
0.197594
0.166166
0.143053
0.143692
0.171766
0.144428
0.118685
0.104363
0.146280
0.120447
0.083878
0.053620
0.104180
0.083249
0.042702
0.012188
0.049933
1.407530
1.182936
1.182936
1.407530
1.177345
0.989481
0.989481
1.177345
0.984805
0.827663
0.827663
0.984805
0.823752
0.692309
0.692309
0.823752
0.689037
0.579090
0.579089
0.689038
0.576354
0.484385
0.484385
0.576349
0.482090
0.405175
0.405210
0.482091
0.403267
0.338957
0.338889
0.403362
0.337426
0.283376
0.282900
0.337282
0.281935
0.236557
0.237216
0.280957
0.234880
0.199061
0.203264
0.235841
0.198283
0.170781
0.172071
0.204860
0.172417
0.142223
0.125556
0.175362
0.144478
0.100806
0.064194
0.125446
0.100094
0.051010
0.013948
0.059630
0.047365
0.012771
-0.006648
0.009392
1.407530
1.182936
1.182936
1.407530
1.177345
0.989481
0.989481
1.177345
0.984805
0.827663
0.827663
0.984805
0.823752
0.692309
0.692309
0.823752
0.689038
0.579089
0.579087
0.689035
0.576348
0.484387
0.484417
0.576342
0.482098
0.405217
0.405187
0.482189
0.403379
0.338840
0.338324
0.403313
0.337171
0.282856
0.283330
0.336064
0.280863
0.237679
0.242446
0.281520
0.236605
0.203835
0.206025
0.244237
0.205767
0.170428
0.151128
0.210215
0.173321
0.121203
0.076871
0.151148
0.120406
0.060930
0.015866
0.071204
0.056418
0.014703
-0.008375
0.010279
0.010711
-0.003796
-0.006815
-0.010076
1.407530
1.182936
1.182936
1.407530
1.177345
0.989481
0.989481
1.177345
0.984805
0.827663
0.827663
0.984805
0.823752
0.692308
0.692306
0.823751
0.689034
0.579088
0.579110
0.689024
0.576345
0.484426
0.484434
0.576421
0.482213
0.405145
0.404623
0.482238
0.403213
0.338244
0.338460
0.402024
0.335897
0.283808
0.289104
0.336098
0.282338
0.243219
0.246625
0.291060
0.245478
0.204218
0.182011
0.251969
0.207940
0.145799
0.092080
0.182249
0.144921
0.072776
0.017910
0.085017
0.067175
0.016845
-0.010534
0.011051
0.011989
-0.004817
-0.007819
-0.012434
-0.006239
-0.004674
-0.000866
-0.006986
1.407530
1.182936
1.182936
1.407530
1.177345
0.989481
0.989481
1.177345
0.984805
0.827663
0.827662
0.984805
0.823751
0.692306
0.692318
0.823741
0.689024
0.579118
0.579156
0.689074
0.576447
0.484405
0.483923
0.576562
0.482160
0.404509
0.404398
0.480973
0.401776
0.338925
0.344648
0.401350
0.336933
0.290125
0.295136
0.346695
0.292728
0.244688
0.219348
0.301961
0.249490
0.175486
0.110339
0.219941
0.174544
0.086920
0.020020
0.101501
0.079941
0.019188
-0.013228
0.011587
0.013279
-0.006086
-0.008891
-0.015307
-0.007659
-0.005285
-0.000654
-0.007772
-0.004755
-0.000737
0.001075
0.000064
1.407530
1.182936
1.182936
1.407530
1.177345
0.989481
0.989480
1.177345
0.984805
0.827661
0.827664
0.984799
0.823740
0.692324
0.692376
0.823760
0.689098
0.579143
0.578756
0.689277
0.576517
0.483783
0.483304
0.575452
0.480645
0.404811
0.410757
0.479428
0.402141
0.345959
0.353041
0.412746
0.348895
0.293139
0.264544
0.361768
0.299354
0.211360
0.132282
0.265701
0.210389
0.103805
0.022085
0.121166
0.095075
0.021696
-0.016578
0.011707
0.014506
-0.007652
-0.009993
-0.018789
-0.009356
-0.005907
-0.000329
-0.008509
-0.005199
-0.000615
0.001244
0.000457
-0.000162
0.000559
0.000253
0.001181
1.407530
1.182936
1.182936
1.407530
1.177346
0.989480
0.989479
1.177344
0.984797
0.827668
0.827712
0.984795
0.823777
0.692377
0.692131
0.823970
0.689273
0.578607
0.577777
0.688471
0.575064
0.483615
0.489443
0.572949
0.480081
0.412387
0.422058
0.491108
0.415587
0.351105
0.319336
0.433223
0.359179
0.254775
0.158687
0.321384
0.253842
0.123960
0.023924
0.144621
0.112984
0.024299
-0.020727
0.011135
0.015558
-0.009568
-0.011059
-0.022974
-0.011360
-0.006506
0.000134
-0.009116
-0.005578
-0.000429
0.001398
0.000964
0.000051
0.000633
0.000195
0.001272
0.000606
0.000138
-0.000116
0.000079
1.407530
1.182936
1.182935
1.407530
1.177343
0.989480
0.989503
1.177334
0.984802
0.827721
0.827628
0.984949
0.824002
0.692000
0.690937
0.823587
0.688072
0.577933
0.583138
0.685102
0.573339
0.491384
0.504150
0.584028
0.494679
0.420385
0.385878
0.518424
0.430917
0.307410
0.190523
0.389336
0.306636
0.148013
0.025237
0.172588
0.134129
0.026872
-0.025838
0.009461
0.016258
-0.011888
-0.011983
-0.027944
-0.013687
-0.007026
0.000758
-0.009479
-0.005835
-0.000172
0.001516
0.001590
0.000317
0.000691
0.000114
0.001314
0.000630
0.000105
-0.000129
0.000000
0.000049
-0.000048
-0.000019
-0.000118
1.407530
1.182935
1.182940
1.407526
1.177334
0.989512
0.989524
1.177398
0.984996
0.827544
0.826496
0.984987
0.823253
0.690904
0.694837
0.819755
0.685090
0.585307
0.601500
0.694226
0.588344
0.503052
0.466858
0.619693
0.516851
0.371375
0.229013
0.472571
0.370974
0.176712
0.025538
0.205921
0.159016
0.029203
-0.032076
0.006068
0.016347
-0.014650
-0.012601
-0.033744
-0.016320
-0.007389
0.001550
-0.009435
-0.005896
0.000158
0.001567
0.002317
0.000626
0.000719
0.000015
0.001281
0.000623
0.000063
-0.000132
-0.000087
0.000011
-0.000051
-0.000009
-0.000112
-0.000046
-0.000008
0.000009
0.000000
1.407525
1.182942
1.182970
1.407530
1.177431
0.989496
0.988788
1.177654
0.984802
0.826297
0.828319
0.981519
0.819243
0.697022
0.716449
0.825121
0.699130
0.601437
0.565645
0.739435
0.619599
0.449348
0.275744
0.575033
0.449699
0.210944
0.024030
0.245626
0.188169
0.030942
-0.039581
0.000013
0.015439
-0.017860
-0.012668
-0.040321
-0.019185
-0.007483
0.002491
-0.008765
-0.005667
0.000551
0.001514
0.003095
0.000956
0.000705
-0.000095
0.001149
0.000574
0.000016
-0.000122
-0.000172
-0.000027
-0.000049
0.000002
-0.000095
-0.000041
-0.000003
0.000008
0.000008
-0.000000
0.000003
0.000000
0.000006
1.407538
1.182972
1.182759
1.407685
1.177637
0.988545
0.988499
1.175611
0.980579
0.830132
0.851356
0.981340
0.830099
0.718025
0.686444
0.879772
0.742013
0.544797
0.332869
0.702027
0.546593
0.251758
0.019378
0.292883
0.222067
0.031515
-0.048388
-0.010157
0.012971
-0.021443
-0.011833
-0.047413
-0.022095
-0.007163
0.003504
-0.007201
-0.005043
0.000970
0.001319
0.003818
0.001262
0.000633
-0.000197
0.000899
0.000477
-0.000029
-0.000097
-0.000237
-0.000058
-0.000041
0.000010
-0.000068
-0.000032
0.000001
0.000006
0.000013
0.000002
0.000002
-0.000001
0.000004
0.000002
-0.000000
-0.000000
-0.000001
1.407728
1.182643
1.181696
1.407363
1.174669
0.989436
1.008524
1.169794
0.985272
0.855168
0.834362
1.041692
0.886826
0.662329
0.403539
0.860949
0.666900
0.300389
0.009270
0.349061
0.260993
0.029985
-0.058238
-0.026742
0.008136
-0.025150
-0.009632
-0.054319
-0.024662
-0.006258
0.004413
-0.004467
-0.003932
0.001348
0.000960
0.004300
0.001474
0.000497
-0.000266
0.000537
0.000336
-0.000063
-0.000062
-0.000263
-0.000075
-0.000029
0.000014
-0.000036
-0.000020
0.000003
0.000003
0.000014
0.000004
0.000001
-0.000001
0.000002
0.000001
-0.000000
-0.000000
-0.000001
-0.000000
-0.000000
0.000000
-0.000000
1.407013
1.181691
1.191301
1.401234
1.170980
1.014440
1.014700
1.223344
1.055532
0.808286
0.493034
1.062584
0.818417
0.358279
-0.010575
0.415712
0.304639
0.024792
-0.068103
-0.053478
-0.000172
-0.028371
-0.005558
-0.059436
-0.026151
-0.004620
0.004898
-0.000426
-0.002317
0.001567
0.000464
0.004271
0.001498
0.000309
-0.000272
0.000118
0.000171
-0.000076
-0.000023
-0.000233
-0.000073
-0.000015
0.000013
-0.000006
-0.000008
0.000003
0.000001
0.000011
0.000003
0.000001
-0.000001
0.000000
0.000000
-0.000000
-0.000000
-0.000000
-0.000000
-0.000000
0.000000
0.000000
-0.000000
0.000000
0.000000
0.000000
1.399746
1.196106
1.227188
1.419727
1.244819
0.991677
0.612599
1.323024
1.014209
0.427077
-0.048958
0.494499
0.351004
0.013303
-0.074926
-0.096608
-0.013273
-0.029754
0.000592
-0.059296
-0.025254
-0.002259
0.004479
0.004518
-0.000390
0.001480
-0.000047
0.003435
0.001246
0.000111
-0.000203
-0.000232
0.000024
-0.000063
0.000005
-0.000150
-0.000052
-0.000004
0.000008
0.000012
-0.000001
0.000002
-0.000000
0.000006
0.000002
0.000000
-0.000000
-0.000001
-0.000000
-0.000000
0.000000
-0.000000
-0.000000
-0.000000
0.000000
0.000000
0.000000
0.000000
-0.000000
0.000000
0.000000
0.000000
-0.000000
-0.000000
1.435472
1.223323
0.799574
1.657680
1.281412
0.508552
-0.127660
0.586851
0.392474
-0.008888
-0.069906
-0.166306
-0.031758
-0.026466
0.007459
-0.046815
-0.019943
0.000296
0.002763
0.008470
0.001226
0.000990
-0.000333
0.001758
0.000724
-0.000024
-0.000088
-0.000341
-0.000051
-0.000032
0.000013
-0.000053
-0.000023
0.000001
0.000002
0.000012
0.000002
0.000001
-0.000000
0.000001
0.000001
-0.000000
-0.000000
-0.000000
-0.000000
-0.000000
0.000000
-0.000000
-0.000000
0.000000
0.000000
0.000000
0.000000
0.000000
-0.000000
0.000000
0.000000
-0.000000
-0.000000
-0.000000
-0.000000
-0.000000
0.000000
-0.000000
1.705986
0.604043
-0.324685
0.692077
0.395255
-0.046490
-0.027570
-0.269082
-0.049290
-0.013654
0.008410
-0.011247
-0.008550
0.001402
0.000495
0.006733
0.001366
0.000301
-0.000213
0.000135
0.000179
-0.000040
-0.000008
-0.000166
-0.000037
-0.000006
0.000005
0.000000
-0.000004
0.000001
0.000000
0.000004
0.000001
0.000000
-0.000000
-0.000000
0.000000
-0.000000
0.000000
-0.000000
-0.000000
-0.000000
0.000000
0.000000
-0.000000
0.000000
-0.000000
0.000000
0.000000
0.000000
-0.000000
-0.000000
0.000000
-0.000000
0.000000
-0.000000
-0.000000
-0.000000
0.000000
0.000000
-0.000000
0.000000
-0.000000
0.000000
 
