# vtk DataFile Version 3.0 
Date: 3/9/2016   Time: 10:5
ASCII 
DATASET UNSTRUCTURED_GRID 
 
POINTS 256 float 
0.000000 0.000000 0.000000 
0.125000 0.000000 0.000000 
0.125000 0.125000 0.000000 
0.000000 0.125000 0.000000 
0.125000 0.000000 0.000000 
0.250000 0.000000 0.000000 
0.250000 0.125000 0.000000 
0.125000 0.125000 0.000000 
0.250000 0.000000 0.000000 
0.375000 0.000000 0.000000 
0.375000 0.125000 0.000000 
0.250000 0.125000 0.000000 
0.375000 0.000000 0.000000 
0.500000 0.000000 0.000000 
0.500000 0.125000 0.000000 
0.375000 0.125000 0.000000 
0.500000 0.000000 0.000000 
0.625000 0.000000 0.000000 
0.625000 0.125000 0.000000 
0.500000 0.125000 0.000000 
0.625000 0.000000 0.000000 
0.750000 0.000000 0.000000 
0.750000 0.125000 0.000000 
0.625000 0.125000 0.000000 
0.750000 0.000000 0.000000 
0.875000 0.000000 0.000000 
0.875000 0.125000 0.000000 
0.750000 0.125000 0.000000 
0.875000 0.000000 0.000000 
1.000000 0.000000 0.000000 
1.000000 0.125000 0.000000 
0.875000 0.125000 0.000000 
0.000000 0.125000 0.000000 
0.125000 0.125000 0.000000 
0.125000 0.250000 0.000000 
0.000000 0.250000 0.000000 
0.125000 0.125000 0.000000 
0.250000 0.125000 0.000000 
0.250000 0.250000 0.000000 
0.125000 0.250000 0.000000 
0.250000 0.125000 0.000000 
0.375000 0.125000 0.000000 
0.375000 0.250000 0.000000 
0.250000 0.250000 0.000000 
0.375000 0.125000 0.000000 
0.500000 0.125000 0.000000 
0.500000 0.250000 0.000000 
0.375000 0.250000 0.000000 
0.500000 0.125000 0.000000 
0.625000 0.125000 0.000000 
0.625000 0.250000 0.000000 
0.500000 0.250000 0.000000 
0.625000 0.125000 0.000000 
0.750000 0.125000 0.000000 
0.750000 0.250000 0.000000 
0.625000 0.250000 0.000000 
0.750000 0.125000 0.000000 
0.875000 0.125000 0.000000 
0.875000 0.250000 0.000000 
0.750000 0.250000 0.000000 
0.875000 0.125000 0.000000 
1.000000 0.125000 0.000000 
1.000000 0.250000 0.000000 
0.875000 0.250000 0.000000 
0.000000 0.250000 0.000000 
0.125000 0.250000 0.000000 
0.125000 0.375000 0.000000 
0.000000 0.375000 0.000000 
0.125000 0.250000 0.000000 
0.250000 0.250000 0.000000 
0.250000 0.375000 0.000000 
0.125000 0.375000 0.000000 
0.250000 0.250000 0.000000 
0.375000 0.250000 0.000000 
0.375000 0.375000 0.000000 
0.250000 0.375000 0.000000 
0.375000 0.250000 0.000000 
0.500000 0.250000 0.000000 
0.500000 0.375000 0.000000 
0.375000 0.375000 0.000000 
0.500000 0.250000 0.000000 
0.625000 0.250000 0.000000 
0.625000 0.375000 0.000000 
0.500000 0.375000 0.000000 
0.625000 0.250000 0.000000 
0.750000 0.250000 0.000000 
0.750000 0.375000 0.000000 
0.625000 0.375000 0.000000 
0.750000 0.250000 0.000000 
0.875000 0.250000 0.000000 
0.875000 0.375000 0.000000 
0.750000 0.375000 0.000000 
0.875000 0.250000 0.000000 
1.000000 0.250000 0.000000 
1.000000 0.375000 0.000000 
0.875000 0.375000 0.000000 
0.000000 0.375000 0.000000 
0.125000 0.375000 0.000000 
0.125000 0.500000 0.000000 
0.000000 0.500000 0.000000 
0.125000 0.375000 0.000000 
0.250000 0.375000 0.000000 
0.250000 0.500000 0.000000 
0.125000 0.500000 0.000000 
0.250000 0.375000 0.000000 
0.375000 0.375000 0.000000 
0.375000 0.500000 0.000000 
0.250000 0.500000 0.000000 
0.375000 0.375000 0.000000 
0.500000 0.375000 0.000000 
0.500000 0.500000 0.000000 
0.375000 0.500000 0.000000 
0.500000 0.375000 0.000000 
0.625000 0.375000 0.000000 
0.625000 0.500000 0.000000 
0.500000 0.500000 0.000000 
0.625000 0.375000 0.000000 
0.750000 0.375000 0.000000 
0.750000 0.500000 0.000000 
0.625000 0.500000 0.000000 
0.750000 0.375000 0.000000 
0.875000 0.375000 0.000000 
0.875000 0.500000 0.000000 
0.750000 0.500000 0.000000 
0.875000 0.375000 0.000000 
1.000000 0.375000 0.000000 
1.000000 0.500000 0.000000 
0.875000 0.500000 0.000000 
0.000000 0.500000 0.000000 
0.125000 0.500000 0.000000 
0.125000 0.625000 0.000000 
0.000000 0.625000 0.000000 
0.125000 0.500000 0.000000 
0.250000 0.500000 0.000000 
0.250000 0.625000 0.000000 
0.125000 0.625000 0.000000 
0.250000 0.500000 0.000000 
0.375000 0.500000 0.000000 
0.375000 0.625000 0.000000 
0.250000 0.625000 0.000000 
0.375000 0.500000 0.000000 
0.500000 0.500000 0.000000 
0.500000 0.625000 0.000000 
0.375000 0.625000 0.000000 
0.500000 0.500000 0.000000 
0.625000 0.500000 0.000000 
0.625000 0.625000 0.000000 
0.500000 0.625000 0.000000 
0.625000 0.500000 0.000000 
0.750000 0.500000 0.000000 
0.750000 0.625000 0.000000 
0.625000 0.625000 0.000000 
0.750000 0.500000 0.000000 
0.875000 0.500000 0.000000 
0.875000 0.625000 0.000000 
0.750000 0.625000 0.000000 
0.875000 0.500000 0.000000 
1.000000 0.500000 0.000000 
1.000000 0.625000 0.000000 
0.875000 0.625000 0.000000 
0.000000 0.625000 0.000000 
0.125000 0.625000 0.000000 
0.125000 0.750000 0.000000 
0.000000 0.750000 0.000000 
0.125000 0.625000 0.000000 
0.250000 0.625000 0.000000 
0.250000 0.750000 0.000000 
0.125000 0.750000 0.000000 
0.250000 0.625000 0.000000 
0.375000 0.625000 0.000000 
0.375000 0.750000 0.000000 
0.250000 0.750000 0.000000 
0.375000 0.625000 0.000000 
0.500000 0.625000 0.000000 
0.500000 0.750000 0.000000 
0.375000 0.750000 0.000000 
0.500000 0.625000 0.000000 
0.625000 0.625000 0.000000 
0.625000 0.750000 0.000000 
0.500000 0.750000 0.000000 
0.625000 0.625000 0.000000 
0.750000 0.625000 0.000000 
0.750000 0.750000 0.000000 
0.625000 0.750000 0.000000 
0.750000 0.625000 0.000000 
0.875000 0.625000 0.000000 
0.875000 0.750000 0.000000 
0.750000 0.750000 0.000000 
0.875000 0.625000 0.000000 
1.000000 0.625000 0.000000 
1.000000 0.750000 0.000000 
0.875000 0.750000 0.000000 
0.000000 0.750000 0.000000 
0.125000 0.750000 0.000000 
0.125000 0.875000 0.000000 
0.000000 0.875000 0.000000 
0.125000 0.750000 0.000000 
0.250000 0.750000 0.000000 
0.250000 0.875000 0.000000 
0.125000 0.875000 0.000000 
0.250000 0.750000 0.000000 
0.375000 0.750000 0.000000 
0.375000 0.875000 0.000000 
0.250000 0.875000 0.000000 
0.375000 0.750000 0.000000 
0.500000 0.750000 0.000000 
0.500000 0.875000 0.000000 
0.375000 0.875000 0.000000 
0.500000 0.750000 0.000000 
0.625000 0.750000 0.000000 
0.625000 0.875000 0.000000 
0.500000 0.875000 0.000000 
0.625000 0.750000 0.000000 
0.750000 0.750000 0.000000 
0.750000 0.875000 0.000000 
0.625000 0.875000 0.000000 
0.750000 0.750000 0.000000 
0.875000 0.750000 0.000000 
0.875000 0.875000 0.000000 
0.750000 0.875000 0.000000 
0.875000 0.750000 0.000000 
1.000000 0.750000 0.000000 
1.000000 0.875000 0.000000 
0.875000 0.875000 0.000000 
0.000000 0.875000 0.000000 
0.125000 0.875000 0.000000 
0.125000 1.000000 0.000000 
0.000000 1.000000 0.000000 
0.125000 0.875000 0.000000 
0.250000 0.875000 0.000000 
0.250000 1.000000 0.000000 
0.125000 1.000000 0.000000 
0.250000 0.875000 0.000000 
0.375000 0.875000 0.000000 
0.375000 1.000000 0.000000 
0.250000 1.000000 0.000000 
0.375000 0.875000 0.000000 
0.500000 0.875000 0.000000 
0.500000 1.000000 0.000000 
0.375000 1.000000 0.000000 
0.500000 0.875000 0.000000 
0.625000 0.875000 0.000000 
0.625000 1.000000 0.000000 
0.500000 1.000000 0.000000 
0.625000 0.875000 0.000000 
0.750000 0.875000 0.000000 
0.750000 1.000000 0.000000 
0.625000 1.000000 0.000000 
0.750000 0.875000 0.000000 
0.875000 0.875000 0.000000 
0.875000 1.000000 0.000000 
0.750000 1.000000 0.000000 
0.875000 0.875000 0.000000 
1.000000 0.875000 0.000000 
1.000000 1.000000 0.000000 
0.875000 1.000000 0.000000 
CELLS 64 320 
 4 0 1 2 3  
 4 4 5 6 7  
 4 8 9 10 11  
 4 12 13 14 15  
 4 16 17 18 19  
 4 20 21 22 23  
 4 24 25 26 27  
 4 28 29 30 31  
 4 32 33 34 35  
 4 36 37 38 39  
 4 40 41 42 43  
 4 44 45 46 47  
 4 48 49 50 51  
 4 52 53 54 55  
 4 56 57 58 59  
 4 60 61 62 63  
 4 64 65 66 67  
 4 68 69 70 71  
 4 72 73 74 75  
 4 76 77 78 79  
 4 80 81 82 83  
 4 84 85 86 87  
 4 88 89 90 91  
 4 92 93 94 95  
 4 96 97 98 99  
 4 100 101 102 103  
 4 104 105 106 107  
 4 108 109 110 111  
 4 112 113 114 115  
 4 116 117 118 119  
 4 120 121 122 123  
 4 124 125 126 127  
 4 128 129 130 131  
 4 132 133 134 135  
 4 136 137 138 139  
 4 140 141 142 143  
 4 144 145 146 147  
 4 148 149 150 151  
 4 152 153 154 155  
 4 156 157 158 159  
 4 160 161 162 163  
 4 164 165 166 167  
 4 168 169 170 171  
 4 172 173 174 175  
 4 176 177 178 179  
 4 180 181 182 183  
 4 184 185 186 187  
 4 188 189 190 191  
 4 192 193 194 195  
 4 196 197 198 199  
 4 200 201 202 203  
 4 204 205 206 207  
 4 208 209 210 211  
 4 212 213 214 215  
 4 216 217 218 219  
 4 220 221 222 223  
 4 224 225 226 227  
 4 228 229 230 231  
 4 232 233 234 235  
 4 236 237 238 239  
 4 240 241 242 243  
 4 244 245 246 247  
 4 248 249 250 251  
 4 252 253 254 255  
 
CELL_TYPES 64
7
7
7
7
7
7
7
7
7
7
7
7
7
7
7
7
7
7
7
7
7
7
7
7
7
7
7
7
7
7
7
7
7
7
7
7
7
7
7
7
7
7
7
7
7
7
7
7
7
7
7
7
7
7
7
7
7
7
7
7
7
7
7
7
CELL_DATA 64
FIELD FieldData 1
material 1 64 int
1
1
1
1
1
1
1
1
1
1
1
1
1
1
1
1
1
1
1
1
1
1
1
1
1
1
1
1
1
1
1
1
1
1
1
1
1
1
1
1
1
1
1
1
1
1
1
1
1
1
1
1
1
1
1
1
1
1
1
1
1
1
1
1
POINT_DATA 256 SCALARS flux_g1 double 
LOOKUP_TABLE   default 
1.390344
0.989302
0.989303
1.390342
0.972598
0.692068
0.692092
0.972614
0.680439
0.484122
0.483701
0.680520
0.475894
0.338129
0.339085
0.474526
0.331552
0.238412
0.244444
0.334030
0.235959
0.171441
0.162120
0.246772
0.172734
0.108373
0.068352
0.160294
0.105737
0.043690
0.004601
0.059262
1.390342
0.989304
0.989321
1.390340
0.972627
0.692090
0.691804
0.972774
0.680480
0.483572
0.483899
0.679109
0.474192
0.339853
0.348113
0.475652
0.335771
0.244901
0.234333
0.351916
0.247323
0.156541
0.098322
0.232598
0.152981
0.062310
0.004638
0.084412
0.053396
0.005685
-0.012332
-0.003180
1.390341
0.989326
0.989254
1.390420
0.972798
0.691670
0.691173
0.971958
0.678581
0.484570
0.494833
0.677806
0.477603
0.349385
0.339140
0.500667
0.353781
0.226525
0.141770
0.338468
0.221863
0.088833
0.003292
0.120162
0.075207
0.006512
-0.017586
-0.007957
0.000466
-0.007200
-0.002809
-0.016226
1.390452
0.989198
0.988444
1.390399
0.971452
0.691457
0.701787
0.967671
0.679374
0.497417
0.491376
0.709548
0.505146
0.328589
0.205225
0.494417
0.322863
0.126584
-0.001232
0.170906
0.105445
0.006602
-0.024645
-0.017194
-0.001699
-0.009749
-0.002337
-0.021619
-0.008846
-0.001425
0.001668
-0.000474
1.390246
0.988298
0.993628
1.386223
0.967726
0.705816
0.711947
0.999311
0.718673
0.478232
0.299246
0.726089
0.472301
0.180255
-0.012825
0.242768
0.146732
0.004804
-0.033437
-0.034735
-0.006151
-0.012661
-0.000831
-0.027364
-0.010799
-0.001015
0.002010
0.001161
-0.000196
0.000633
0.000020
0.001582
1.384826
0.996879
1.025578
1.395881
1.014547
0.699224
0.443266
1.074050
0.697017
0.256407
-0.040471
0.344122
0.201346
-0.001257
-0.042341
-0.067838
-0.014459
-0.015182
0.002177
-0.031219
-0.011891
-0.000174
0.001963
0.003634
0.000505
0.000624
-0.000151
0.001345
0.000466
-0.000008
-0.000065
-0.000183
1.406784
1.026607
0.687482
1.595733
1.046730
0.364017
-0.107921
0.485806
0.267619
-0.016284
-0.044399
-0.129882
-0.028234
-0.015156
0.006196
-0.027179
-0.010441
0.000914
0.001184
0.005956
0.001155
0.000421
-0.000232
0.000627
0.000268
-0.000041
-0.000022
-0.000197
-0.000041
-0.000009
0.000007
-0.000008
1.646909
0.514344
-0.300543
0.678329
0.319051
-0.046916
-0.015182
-0.235866
-0.043735
-0.007951
0.006305
-0.003710
-0.004362
0.001202
0.000043
0.004629
0.001001
0.000104
-0.000122
-0.000110
0.000044
-0.000027
0.000004
-0.000084
-0.000021
-0.000001
0.000002
0.000005
-0.000000
0.000001
-0.000000
0.000001
 
