# vtk DataFile Version 3.0 
Date: 3/9/2016   Time: 10:5
ASCII 
DATASET UNSTRUCTURED_GRID 
 
POINTS 64 float 
0.000000 0.000000 0.000000 
0.250000 0.000000 0.000000 
0.250000 0.250000 0.000000 
0.000000 0.250000 0.000000 
0.250000 0.000000 0.000000 
0.500000 0.000000 0.000000 
0.500000 0.250000 0.000000 
0.250000 0.250000 0.000000 
0.500000 0.000000 0.000000 
0.750000 0.000000 0.000000 
0.750000 0.250000 0.000000 
0.500000 0.250000 0.000000 
0.750000 0.000000 0.000000 
1.000000 0.000000 0.000000 
1.000000 0.250000 0.000000 
0.750000 0.250000 0.000000 
0.000000 0.250000 0.000000 
0.250000 0.250000 0.000000 
0.250000 0.500000 0.000000 
0.000000 0.500000 0.000000 
0.250000 0.250000 0.000000 
0.500000 0.250000 0.000000 
0.500000 0.500000 0.000000 
0.250000 0.500000 0.000000 
0.500000 0.250000 0.000000 
0.750000 0.250000 0.000000 
0.750000 0.500000 0.000000 
0.500000 0.500000 0.000000 
0.750000 0.250000 0.000000 
1.000000 0.250000 0.000000 
1.000000 0.500000 0.000000 
0.750000 0.500000 0.000000 
0.000000 0.500000 0.000000 
0.250000 0.500000 0.000000 
0.250000 0.750000 0.000000 
0.000000 0.750000 0.000000 
0.250000 0.500000 0.000000 
0.500000 0.500000 0.000000 
0.500000 0.750000 0.000000 
0.250000 0.750000 0.000000 
0.500000 0.500000 0.000000 
0.750000 0.500000 0.000000 
0.750000 0.750000 0.000000 
0.500000 0.750000 0.000000 
0.750000 0.500000 0.000000 
1.000000 0.500000 0.000000 
1.000000 0.750000 0.000000 
0.750000 0.750000 0.000000 
0.000000 0.750000 0.000000 
0.250000 0.750000 0.000000 
0.250000 1.000000 0.000000 
0.000000 1.000000 0.000000 
0.250000 0.750000 0.000000 
0.500000 0.750000 0.000000 
0.500000 1.000000 0.000000 
0.250000 1.000000 0.000000 
0.500000 0.750000 0.000000 
0.750000 0.750000 0.000000 
0.750000 1.000000 0.000000 
0.500000 1.000000 0.000000 
0.750000 0.750000 0.000000 
1.000000 0.750000 0.000000 
1.000000 1.000000 0.000000 
0.750000 1.000000 0.000000 
CELLS 16 80 
 4 0 1 2 3  
 4 4 5 6 7  
 4 8 9 10 11  
 4 12 13 14 15  
 4 16 17 18 19  
 4 20 21 22 23  
 4 24 25 26 27  
 4 28 29 30 31  
 4 32 33 34 35  
 4 36 37 38 39  
 4 40 41 42 43  
 4 44 45 46 47  
 4 48 49 50 51  
 4 52 53 54 55  
 4 56 57 58 59  
 4 60 61 62 63  
 
CELL_TYPES 16
7
7
7
7
7
7
7
7
7
7
7
7
7
7
7
7
CELL_DATA 16
FIELD FieldData 1
material 1 16 int
1
1
1
1
1
1
1
1
1
1
1
1
1
1
1
1
POINT_DATA 64 SCALARS flux_g1 double 
LOOKUP_TABLE   default 
0.571200
-0.136906
-0.136858
0.571369
-0.055286
0.013253
0.013240
-0.055318
0.005350
-0.001283
-0.001280
0.005356
-0.000518
0.000124
0.000124
-0.000519
0.571673
-0.136886
-0.137217
0.569818
-0.055409
0.013256
0.013327
-0.055100
0.005376
-0.001285
-0.001295
0.005326
-0.000522
0.000125
0.000126
-0.000515
0.566514
-0.136625
-0.135129
0.586912
-0.054326
0.013140
0.012926
-0.057171
0.005190
-0.001258
-0.001237
0.005575
-0.000494
0.000120
0.000118
-0.000544
0.623049
-0.144706
-0.138480
0.397498
-0.063208
0.014752
0.013596
-0.038807
0.006398
-0.001499
-0.001338
0.003800
-0.000646
0.000152
0.000132
-0.000373
 
