# vtk DataFile Version 3.0 
Date: 3/9/2016   Time: 10:1
ASCII 
DATASET UNSTRUCTURED_GRID 
 
POINTS 256 float 
0.000000 0.000000 0.000000 
0.125000 0.000000 0.000000 
0.125000 0.125000 0.000000 
0.000000 0.125000 0.000000 
0.125000 0.000000 0.000000 
0.250000 0.000000 0.000000 
0.250000 0.125000 0.000000 
0.125000 0.125000 0.000000 
0.250000 0.000000 0.000000 
0.375000 0.000000 0.000000 
0.375000 0.125000 0.000000 
0.250000 0.125000 0.000000 
0.375000 0.000000 0.000000 
0.500000 0.000000 0.000000 
0.500000 0.125000 0.000000 
0.375000 0.125000 0.000000 
0.500000 0.000000 0.000000 
0.625000 0.000000 0.000000 
0.625000 0.125000 0.000000 
0.500000 0.125000 0.000000 
0.625000 0.000000 0.000000 
0.750000 0.000000 0.000000 
0.750000 0.125000 0.000000 
0.625000 0.125000 0.000000 
0.750000 0.000000 0.000000 
0.875000 0.000000 0.000000 
0.875000 0.125000 0.000000 
0.750000 0.125000 0.000000 
0.875000 0.000000 0.000000 
1.000000 0.000000 0.000000 
1.000000 0.125000 0.000000 
0.875000 0.125000 0.000000 
0.000000 0.125000 0.000000 
0.125000 0.125000 0.000000 
0.125000 0.250000 0.000000 
0.000000 0.250000 0.000000 
0.125000 0.125000 0.000000 
0.250000 0.125000 0.000000 
0.250000 0.250000 0.000000 
0.125000 0.250000 0.000000 
0.250000 0.125000 0.000000 
0.375000 0.125000 0.000000 
0.375000 0.250000 0.000000 
0.250000 0.250000 0.000000 
0.375000 0.125000 0.000000 
0.500000 0.125000 0.000000 
0.500000 0.250000 0.000000 
0.375000 0.250000 0.000000 
0.500000 0.125000 0.000000 
0.625000 0.125000 0.000000 
0.625000 0.250000 0.000000 
0.500000 0.250000 0.000000 
0.625000 0.125000 0.000000 
0.750000 0.125000 0.000000 
0.750000 0.250000 0.000000 
0.625000 0.250000 0.000000 
0.750000 0.125000 0.000000 
0.875000 0.125000 0.000000 
0.875000 0.250000 0.000000 
0.750000 0.250000 0.000000 
0.875000 0.125000 0.000000 
1.000000 0.125000 0.000000 
1.000000 0.250000 0.000000 
0.875000 0.250000 0.000000 
0.000000 0.250000 0.000000 
0.125000 0.250000 0.000000 
0.125000 0.375000 0.000000 
0.000000 0.375000 0.000000 
0.125000 0.250000 0.000000 
0.250000 0.250000 0.000000 
0.250000 0.375000 0.000000 
0.125000 0.375000 0.000000 
0.250000 0.250000 0.000000 
0.375000 0.250000 0.000000 
0.375000 0.375000 0.000000 
0.250000 0.375000 0.000000 
0.375000 0.250000 0.000000 
0.500000 0.250000 0.000000 
0.500000 0.375000 0.000000 
0.375000 0.375000 0.000000 
0.500000 0.250000 0.000000 
0.625000 0.250000 0.000000 
0.625000 0.375000 0.000000 
0.500000 0.375000 0.000000 
0.625000 0.250000 0.000000 
0.750000 0.250000 0.000000 
0.750000 0.375000 0.000000 
0.625000 0.375000 0.000000 
0.750000 0.250000 0.000000 
0.875000 0.250000 0.000000 
0.875000 0.375000 0.000000 
0.750000 0.375000 0.000000 
0.875000 0.250000 0.000000 
1.000000 0.250000 0.000000 
1.000000 0.375000 0.000000 
0.875000 0.375000 0.000000 
0.000000 0.375000 0.000000 
0.125000 0.375000 0.000000 
0.125000 0.500000 0.000000 
0.000000 0.500000 0.000000 
0.125000 0.375000 0.000000 
0.250000 0.375000 0.000000 
0.250000 0.500000 0.000000 
0.125000 0.500000 0.000000 
0.250000 0.375000 0.000000 
0.375000 0.375000 0.000000 
0.375000 0.500000 0.000000 
0.250000 0.500000 0.000000 
0.375000 0.375000 0.000000 
0.500000 0.375000 0.000000 
0.500000 0.500000 0.000000 
0.375000 0.500000 0.000000 
0.500000 0.375000 0.000000 
0.625000 0.375000 0.000000 
0.625000 0.500000 0.000000 
0.500000 0.500000 0.000000 
0.625000 0.375000 0.000000 
0.750000 0.375000 0.000000 
0.750000 0.500000 0.000000 
0.625000 0.500000 0.000000 
0.750000 0.375000 0.000000 
0.875000 0.375000 0.000000 
0.875000 0.500000 0.000000 
0.750000 0.500000 0.000000 
0.875000 0.375000 0.000000 
1.000000 0.375000 0.000000 
1.000000 0.500000 0.000000 
0.875000 0.500000 0.000000 
0.000000 0.500000 0.000000 
0.125000 0.500000 0.000000 
0.125000 0.625000 0.000000 
0.000000 0.625000 0.000000 
0.125000 0.500000 0.000000 
0.250000 0.500000 0.000000 
0.250000 0.625000 0.000000 
0.125000 0.625000 0.000000 
0.250000 0.500000 0.000000 
0.375000 0.500000 0.000000 
0.375000 0.625000 0.000000 
0.250000 0.625000 0.000000 
0.375000 0.500000 0.000000 
0.500000 0.500000 0.000000 
0.500000 0.625000 0.000000 
0.375000 0.625000 0.000000 
0.500000 0.500000 0.000000 
0.625000 0.500000 0.000000 
0.625000 0.625000 0.000000 
0.500000 0.625000 0.000000 
0.625000 0.500000 0.000000 
0.750000 0.500000 0.000000 
0.750000 0.625000 0.000000 
0.625000 0.625000 0.000000 
0.750000 0.500000 0.000000 
0.875000 0.500000 0.000000 
0.875000 0.625000 0.000000 
0.750000 0.625000 0.000000 
0.875000 0.500000 0.000000 
1.000000 0.500000 0.000000 
1.000000 0.625000 0.000000 
0.875000 0.625000 0.000000 
0.000000 0.625000 0.000000 
0.125000 0.625000 0.000000 
0.125000 0.750000 0.000000 
0.000000 0.750000 0.000000 
0.125000 0.625000 0.000000 
0.250000 0.625000 0.000000 
0.250000 0.750000 0.000000 
0.125000 0.750000 0.000000 
0.250000 0.625000 0.000000 
0.375000 0.625000 0.000000 
0.375000 0.750000 0.000000 
0.250000 0.750000 0.000000 
0.375000 0.625000 0.000000 
0.500000 0.625000 0.000000 
0.500000 0.750000 0.000000 
0.375000 0.750000 0.000000 
0.500000 0.625000 0.000000 
0.625000 0.625000 0.000000 
0.625000 0.750000 0.000000 
0.500000 0.750000 0.000000 
0.625000 0.625000 0.000000 
0.750000 0.625000 0.000000 
0.750000 0.750000 0.000000 
0.625000 0.750000 0.000000 
0.750000 0.625000 0.000000 
0.875000 0.625000 0.000000 
0.875000 0.750000 0.000000 
0.750000 0.750000 0.000000 
0.875000 0.625000 0.000000 
1.000000 0.625000 0.000000 
1.000000 0.750000 0.000000 
0.875000 0.750000 0.000000 
0.000000 0.750000 0.000000 
0.125000 0.750000 0.000000 
0.125000 0.875000 0.000000 
0.000000 0.875000 0.000000 
0.125000 0.750000 0.000000 
0.250000 0.750000 0.000000 
0.250000 0.875000 0.000000 
0.125000 0.875000 0.000000 
0.250000 0.750000 0.000000 
0.375000 0.750000 0.000000 
0.375000 0.875000 0.000000 
0.250000 0.875000 0.000000 
0.375000 0.750000 0.000000 
0.500000 0.750000 0.000000 
0.500000 0.875000 0.000000 
0.375000 0.875000 0.000000 
0.500000 0.750000 0.000000 
0.625000 0.750000 0.000000 
0.625000 0.875000 0.000000 
0.500000 0.875000 0.000000 
0.625000 0.750000 0.000000 
0.750000 0.750000 0.000000 
0.750000 0.875000 0.000000 
0.625000 0.875000 0.000000 
0.750000 0.750000 0.000000 
0.875000 0.750000 0.000000 
0.875000 0.875000 0.000000 
0.750000 0.875000 0.000000 
0.875000 0.750000 0.000000 
1.000000 0.750000 0.000000 
1.000000 0.875000 0.000000 
0.875000 0.875000 0.000000 
0.000000 0.875000 0.000000 
0.125000 0.875000 0.000000 
0.125000 1.000000 0.000000 
0.000000 1.000000 0.000000 
0.125000 0.875000 0.000000 
0.250000 0.875000 0.000000 
0.250000 1.000000 0.000000 
0.125000 1.000000 0.000000 
0.250000 0.875000 0.000000 
0.375000 0.875000 0.000000 
0.375000 1.000000 0.000000 
0.250000 1.000000 0.000000 
0.375000 0.875000 0.000000 
0.500000 0.875000 0.000000 
0.500000 1.000000 0.000000 
0.375000 1.000000 0.000000 
0.500000 0.875000 0.000000 
0.625000 0.875000 0.000000 
0.625000 1.000000 0.000000 
0.500000 1.000000 0.000000 
0.625000 0.875000 0.000000 
0.750000 0.875000 0.000000 
0.750000 1.000000 0.000000 
0.625000 1.000000 0.000000 
0.750000 0.875000 0.000000 
0.875000 0.875000 0.000000 
0.875000 1.000000 0.000000 
0.750000 1.000000 0.000000 
0.875000 0.875000 0.000000 
1.000000 0.875000 0.000000 
1.000000 1.000000 0.000000 
0.875000 1.000000 0.000000 
CELLS 64 320 
 4 0 1 2 3  
 4 4 5 6 7  
 4 8 9 10 11  
 4 12 13 14 15  
 4 16 17 18 19  
 4 20 21 22 23  
 4 24 25 26 27  
 4 28 29 30 31  
 4 32 33 34 35  
 4 36 37 38 39  
 4 40 41 42 43  
 4 44 45 46 47  
 4 48 49 50 51  
 4 52 53 54 55  
 4 56 57 58 59  
 4 60 61 62 63  
 4 64 65 66 67  
 4 68 69 70 71  
 4 72 73 74 75  
 4 76 77 78 79  
 4 80 81 82 83  
 4 84 85 86 87  
 4 88 89 90 91  
 4 92 93 94 95  
 4 96 97 98 99  
 4 100 101 102 103  
 4 104 105 106 107  
 4 108 109 110 111  
 4 112 113 114 115  
 4 116 117 118 119  
 4 120 121 122 123  
 4 124 125 126 127  
 4 128 129 130 131  
 4 132 133 134 135  
 4 136 137 138 139  
 4 140 141 142 143  
 4 144 145 146 147  
 4 148 149 150 151  
 4 152 153 154 155  
 4 156 157 158 159  
 4 160 161 162 163  
 4 164 165 166 167  
 4 168 169 170 171  
 4 172 173 174 175  
 4 176 177 178 179  
 4 180 181 182 183  
 4 184 185 186 187  
 4 188 189 190 191  
 4 192 193 194 195  
 4 196 197 198 199  
 4 200 201 202 203  
 4 204 205 206 207  
 4 208 209 210 211  
 4 212 213 214 215  
 4 216 217 218 219  
 4 220 221 222 223  
 4 224 225 226 227  
 4 228 229 230 231  
 4 232 233 234 235  
 4 236 237 238 239  
 4 240 241 242 243  
 4 244 245 246 247  
 4 248 249 250 251  
 4 252 253 254 255  
 
CELL_TYPES 64
7
7
7
7
7
7
7
7
7
7
7
7
7
7
7
7
7
7
7
7
7
7
7
7
7
7
7
7
7
7
7
7
7
7
7
7
7
7
7
7
7
7
7
7
7
7
7
7
7
7
7
7
7
7
7
7
7
7
7
7
7
7
7
7
CELL_DATA 64
FIELD FieldData 1
material 1 64 int
1
1
1
1
1
1
1
1
1
1
1
1
1
1
1
1
1
1
1
1
1
1
1
1
1
1
1
1
1
1
1
1
1
1
1
1
1
1
1
1
1
1
1
1
1
1
1
1
1
1
1
1
1
1
1
1
1
1
1
1
1
1
1
1
POINT_DATA 256 SCALARS flux_g1 double 
LOOKUP_TABLE   default 
1.390344
0.989302
0.989303
1.390342
0.972598
0.692069
0.692090
0.972619
0.680445
0.484111
0.483685
0.680500
0.475858
0.338136
0.339200
0.474495
0.331556
0.238540
0.244454
0.334309
0.236189
0.171350
0.161832
0.246699
0.172709
0.108066
0.068417
0.159704
0.105444
0.043742
0.004885
0.059345
1.390341
0.989304
0.989321
1.390341
0.972633
0.692084
0.691782
0.972769
0.680453
0.483561
0.484015
0.679036
0.474157
0.340016
0.348170
0.475994
0.336079
0.244817
0.233941
0.351911
0.247348
0.156098
0.098426
0.231739
0.152562
0.062382
0.005033
0.084530
0.053401
0.006036
-0.012398
-0.002541
1.390343
0.989325
0.989240
1.390425
0.972790
0.691644
0.691257
0.971862
0.678493
0.484753
0.494970
0.678160
0.477984
0.349342
0.338612
0.500823
0.353918
0.225886
0.141943
0.337220
0.221270
0.088934
0.003835
0.120330
0.075196
0.007012
-0.017739
-0.007041
0.000761
-0.007155
-0.003072
-0.016257
1.390459
0.989177
0.988460
1.390344
0.971328
0.691613
0.702039
0.967908
0.679777
0.497475
0.490674
0.710032
0.505503
0.327672
0.205532
0.492614
0.322041
0.126727
-0.000505
0.171144
0.105395
0.007312
-0.024958
-0.015886
-0.001303
-0.009729
-0.002676
-0.021759
-0.008912
-0.001576
0.001682
-0.000782
1.390170
0.988346
0.993965
1.386173
0.968004
0.706073
0.711029
1.000351
0.719428
0.476932
0.299843
0.723523
0.471206
0.180458
-0.011911
0.243111
0.146584
0.005803
-0.034030
-0.032887
-0.005626
-0.012703
-0.001233
-0.027716
-0.010925
-0.001199
0.002069
0.000800
-0.000321
0.000633
0.000059
0.001633
1.384730
0.997378
1.024501
1.397463
1.015936
0.697442
0.444501
1.070573
0.695692
0.256696
-0.039492
0.344623
0.200953
0.000126
-0.043395
-0.065283
-0.013775
-0.015349
0.001776
-0.031947
-0.012108
-0.000372
0.002077
0.003280
0.000385
0.000643
-0.000124
0.001438
0.000488
0.000004
-0.000073
-0.000163
1.408895
1.024483
0.689845
1.591946
1.045482
0.364435
-0.107336
0.486549
0.266640
-0.014448
-0.046111
-0.126573
-0.027358
-0.015535
0.005956
-0.028479
-0.010771
0.000754
0.001329
0.005746
0.001073
0.000453
-0.000227
0.000738
0.000295
-0.000035
-0.000028
-0.000195
-0.000038
-0.000011
0.000007
-0.000013
1.646298
0.514925
-0.301154
0.679309
0.316982
-0.044827
-0.017503
-0.232549
-0.042727
-0.008544
0.006461
-0.005465
-0.004753
0.001160
0.000125
0.004719
0.000993
0.000128
-0.000130
-0.000051
0.000059
-0.000027
0.000002
-0.000090
-0.000021
-0.000002
0.000002
0.000004
-0.000000
0.000001
-0.000000
0.000002
 
