# vtk DataFile Version 3.0 
Date: 3/9/2016   Time: 10:1
ASCII 
DATASET UNSTRUCTURED_GRID 
 
POINTS 1024 float 
0.000000 0.000000 0.000000 
0.062500 0.000000 0.000000 
0.062500 0.062500 0.000000 
0.000000 0.062500 0.000000 
0.062500 0.000000 0.000000 
0.125000 0.000000 0.000000 
0.125000 0.062500 0.000000 
0.062500 0.062500 0.000000 
0.125000 0.000000 0.000000 
0.187500 0.000000 0.000000 
0.187500 0.062500 0.000000 
0.125000 0.062500 0.000000 
0.187500 0.000000 0.000000 
0.250000 0.000000 0.000000 
0.250000 0.062500 0.000000 
0.187500 0.062500 0.000000 
0.250000 0.000000 0.000000 
0.312500 0.000000 0.000000 
0.312500 0.062500 0.000000 
0.250000 0.062500 0.000000 
0.312500 0.000000 0.000000 
0.375000 0.000000 0.000000 
0.375000 0.062500 0.000000 
0.312500 0.062500 0.000000 
0.375000 0.000000 0.000000 
0.437500 0.000000 0.000000 
0.437500 0.062500 0.000000 
0.375000 0.062500 0.000000 
0.437500 0.000000 0.000000 
0.500000 0.000000 0.000000 
0.500000 0.062500 0.000000 
0.437500 0.062500 0.000000 
0.500000 0.000000 0.000000 
0.562500 0.000000 0.000000 
0.562500 0.062500 0.000000 
0.500000 0.062500 0.000000 
0.562500 0.000000 0.000000 
0.625000 0.000000 0.000000 
0.625000 0.062500 0.000000 
0.562500 0.062500 0.000000 
0.625000 0.000000 0.000000 
0.687500 0.000000 0.000000 
0.687500 0.062500 0.000000 
0.625000 0.062500 0.000000 
0.687500 0.000000 0.000000 
0.750000 0.000000 0.000000 
0.750000 0.062500 0.000000 
0.687500 0.062500 0.000000 
0.750000 0.000000 0.000000 
0.812500 0.000000 0.000000 
0.812500 0.062500 0.000000 
0.750000 0.062500 0.000000 
0.812500 0.000000 0.000000 
0.875000 0.000000 0.000000 
0.875000 0.062500 0.000000 
0.812500 0.062500 0.000000 
0.875000 0.000000 0.000000 
0.937500 0.000000 0.000000 
0.937500 0.062500 0.000000 
0.875000 0.062500 0.000000 
0.937500 0.000000 0.000000 
1.000000 0.000000 0.000000 
1.000000 0.062500 0.000000 
0.937500 0.062500 0.000000 
0.000000 0.062500 0.000000 
0.062500 0.062500 0.000000 
0.062500 0.125000 0.000000 
0.000000 0.125000 0.000000 
0.062500 0.062500 0.000000 
0.125000 0.062500 0.000000 
0.125000 0.125000 0.000000 
0.062500 0.125000 0.000000 
0.125000 0.062500 0.000000 
0.187500 0.062500 0.000000 
0.187500 0.125000 0.000000 
0.125000 0.125000 0.000000 
0.187500 0.062500 0.000000 
0.250000 0.062500 0.000000 
0.250000 0.125000 0.000000 
0.187500 0.125000 0.000000 
0.250000 0.062500 0.000000 
0.312500 0.062500 0.000000 
0.312500 0.125000 0.000000 
0.250000 0.125000 0.000000 
0.312500 0.062500 0.000000 
0.375000 0.062500 0.000000 
0.375000 0.125000 0.000000 
0.312500 0.125000 0.000000 
0.375000 0.062500 0.000000 
0.437500 0.062500 0.000000 
0.437500 0.125000 0.000000 
0.375000 0.125000 0.000000 
0.437500 0.062500 0.000000 
0.500000 0.062500 0.000000 
0.500000 0.125000 0.000000 
0.437500 0.125000 0.000000 
0.500000 0.062500 0.000000 
0.562500 0.062500 0.000000 
0.562500 0.125000 0.000000 
0.500000 0.125000 0.000000 
0.562500 0.062500 0.000000 
0.625000 0.062500 0.000000 
0.625000 0.125000 0.000000 
0.562500 0.125000 0.000000 
0.625000 0.062500 0.000000 
0.687500 0.062500 0.000000 
0.687500 0.125000 0.000000 
0.625000 0.125000 0.000000 
0.687500 0.062500 0.000000 
0.750000 0.062500 0.000000 
0.750000 0.125000 0.000000 
0.687500 0.125000 0.000000 
0.750000 0.062500 0.000000 
0.812500 0.062500 0.000000 
0.812500 0.125000 0.000000 
0.750000 0.125000 0.000000 
0.812500 0.062500 0.000000 
0.875000 0.062500 0.000000 
0.875000 0.125000 0.000000 
0.812500 0.125000 0.000000 
0.875000 0.062500 0.000000 
0.937500 0.062500 0.000000 
0.937500 0.125000 0.000000 
0.875000 0.125000 0.000000 
0.937500 0.062500 0.000000 
1.000000 0.062500 0.000000 
1.000000 0.125000 0.000000 
0.937500 0.125000 0.000000 
0.000000 0.125000 0.000000 
0.062500 0.125000 0.000000 
0.062500 0.187500 0.000000 
0.000000 0.187500 0.000000 
0.062500 0.125000 0.000000 
0.125000 0.125000 0.000000 
0.125000 0.187500 0.000000 
0.062500 0.187500 0.000000 
0.125000 0.125000 0.000000 
0.187500 0.125000 0.000000 
0.187500 0.187500 0.000000 
0.125000 0.187500 0.000000 
0.187500 0.125000 0.000000 
0.250000 0.125000 0.000000 
0.250000 0.187500 0.000000 
0.187500 0.187500 0.000000 
0.250000 0.125000 0.000000 
0.312500 0.125000 0.000000 
0.312500 0.187500 0.000000 
0.250000 0.187500 0.000000 
0.312500 0.125000 0.000000 
0.375000 0.125000 0.000000 
0.375000 0.187500 0.000000 
0.312500 0.187500 0.000000 
0.375000 0.125000 0.000000 
0.437500 0.125000 0.000000 
0.437500 0.187500 0.000000 
0.375000 0.187500 0.000000 
0.437500 0.125000 0.000000 
0.500000 0.125000 0.000000 
0.500000 0.187500 0.000000 
0.437500 0.187500 0.000000 
0.500000 0.125000 0.000000 
0.562500 0.125000 0.000000 
0.562500 0.187500 0.000000 
0.500000 0.187500 0.000000 
0.562500 0.125000 0.000000 
0.625000 0.125000 0.000000 
0.625000 0.187500 0.000000 
0.562500 0.187500 0.000000 
0.625000 0.125000 0.000000 
0.687500 0.125000 0.000000 
0.687500 0.187500 0.000000 
0.625000 0.187500 0.000000 
0.687500 0.125000 0.000000 
0.750000 0.125000 0.000000 
0.750000 0.187500 0.000000 
0.687500 0.187500 0.000000 
0.750000 0.125000 0.000000 
0.812500 0.125000 0.000000 
0.812500 0.187500 0.000000 
0.750000 0.187500 0.000000 
0.812500 0.125000 0.000000 
0.875000 0.125000 0.000000 
0.875000 0.187500 0.000000 
0.812500 0.187500 0.000000 
0.875000 0.125000 0.000000 
0.937500 0.125000 0.000000 
0.937500 0.187500 0.000000 
0.875000 0.187500 0.000000 
0.937500 0.125000 0.000000 
1.000000 0.125000 0.000000 
1.000000 0.187500 0.000000 
0.937500 0.187500 0.000000 
0.000000 0.187500 0.000000 
0.062500 0.187500 0.000000 
0.062500 0.250000 0.000000 
0.000000 0.250000 0.000000 
0.062500 0.187500 0.000000 
0.125000 0.187500 0.000000 
0.125000 0.250000 0.000000 
0.062500 0.250000 0.000000 
0.125000 0.187500 0.000000 
0.187500 0.187500 0.000000 
0.187500 0.250000 0.000000 
0.125000 0.250000 0.000000 
0.187500 0.187500 0.000000 
0.250000 0.187500 0.000000 
0.250000 0.250000 0.000000 
0.187500 0.250000 0.000000 
0.250000 0.187500 0.000000 
0.312500 0.187500 0.000000 
0.312500 0.250000 0.000000 
0.250000 0.250000 0.000000 
0.312500 0.187500 0.000000 
0.375000 0.187500 0.000000 
0.375000 0.250000 0.000000 
0.312500 0.250000 0.000000 
0.375000 0.187500 0.000000 
0.437500 0.187500 0.000000 
0.437500 0.250000 0.000000 
0.375000 0.250000 0.000000 
0.437500 0.187500 0.000000 
0.500000 0.187500 0.000000 
0.500000 0.250000 0.000000 
0.437500 0.250000 0.000000 
0.500000 0.187500 0.000000 
0.562500 0.187500 0.000000 
0.562500 0.250000 0.000000 
0.500000 0.250000 0.000000 
0.562500 0.187500 0.000000 
0.625000 0.187500 0.000000 
0.625000 0.250000 0.000000 
0.562500 0.250000 0.000000 
0.625000 0.187500 0.000000 
0.687500 0.187500 0.000000 
0.687500 0.250000 0.000000 
0.625000 0.250000 0.000000 
0.687500 0.187500 0.000000 
0.750000 0.187500 0.000000 
0.750000 0.250000 0.000000 
0.687500 0.250000 0.000000 
0.750000 0.187500 0.000000 
0.812500 0.187500 0.000000 
0.812500 0.250000 0.000000 
0.750000 0.250000 0.000000 
0.812500 0.187500 0.000000 
0.875000 0.187500 0.000000 
0.875000 0.250000 0.000000 
0.812500 0.250000 0.000000 
0.875000 0.187500 0.000000 
0.937500 0.187500 0.000000 
0.937500 0.250000 0.000000 
0.875000 0.250000 0.000000 
0.937500 0.187500 0.000000 
1.000000 0.187500 0.000000 
1.000000 0.250000 0.000000 
0.937500 0.250000 0.000000 
0.000000 0.250000 0.000000 
0.062500 0.250000 0.000000 
0.062500 0.312500 0.000000 
0.000000 0.312500 0.000000 
0.062500 0.250000 0.000000 
0.125000 0.250000 0.000000 
0.125000 0.312500 0.000000 
0.062500 0.312500 0.000000 
0.125000 0.250000 0.000000 
0.187500 0.250000 0.000000 
0.187500 0.312500 0.000000 
0.125000 0.312500 0.000000 
0.187500 0.250000 0.000000 
0.250000 0.250000 0.000000 
0.250000 0.312500 0.000000 
0.187500 0.312500 0.000000 
0.250000 0.250000 0.000000 
0.312500 0.250000 0.000000 
0.312500 0.312500 0.000000 
0.250000 0.312500 0.000000 
0.312500 0.250000 0.000000 
0.375000 0.250000 0.000000 
0.375000 0.312500 0.000000 
0.312500 0.312500 0.000000 
0.375000 0.250000 0.000000 
0.437500 0.250000 0.000000 
0.437500 0.312500 0.000000 
0.375000 0.312500 0.000000 
0.437500 0.250000 0.000000 
0.500000 0.250000 0.000000 
0.500000 0.312500 0.000000 
0.437500 0.312500 0.000000 
0.500000 0.250000 0.000000 
0.562500 0.250000 0.000000 
0.562500 0.312500 0.000000 
0.500000 0.312500 0.000000 
0.562500 0.250000 0.000000 
0.625000 0.250000 0.000000 
0.625000 0.312500 0.000000 
0.562500 0.312500 0.000000 
0.625000 0.250000 0.000000 
0.687500 0.250000 0.000000 
0.687500 0.312500 0.000000 
0.625000 0.312500 0.000000 
0.687500 0.250000 0.000000 
0.750000 0.250000 0.000000 
0.750000 0.312500 0.000000 
0.687500 0.312500 0.000000 
0.750000 0.250000 0.000000 
0.812500 0.250000 0.000000 
0.812500 0.312500 0.000000 
0.750000 0.312500 0.000000 
0.812500 0.250000 0.000000 
0.875000 0.250000 0.000000 
0.875000 0.312500 0.000000 
0.812500 0.312500 0.000000 
0.875000 0.250000 0.000000 
0.937500 0.250000 0.000000 
0.937500 0.312500 0.000000 
0.875000 0.312500 0.000000 
0.937500 0.250000 0.000000 
1.000000 0.250000 0.000000 
1.000000 0.312500 0.000000 
0.937500 0.312500 0.000000 
0.000000 0.312500 0.000000 
0.062500 0.312500 0.000000 
0.062500 0.375000 0.000000 
0.000000 0.375000 0.000000 
0.062500 0.312500 0.000000 
0.125000 0.312500 0.000000 
0.125000 0.375000 0.000000 
0.062500 0.375000 0.000000 
0.125000 0.312500 0.000000 
0.187500 0.312500 0.000000 
0.187500 0.375000 0.000000 
0.125000 0.375000 0.000000 
0.187500 0.312500 0.000000 
0.250000 0.312500 0.000000 
0.250000 0.375000 0.000000 
0.187500 0.375000 0.000000 
0.250000 0.312500 0.000000 
0.312500 0.312500 0.000000 
0.312500 0.375000 0.000000 
0.250000 0.375000 0.000000 
0.312500 0.312500 0.000000 
0.375000 0.312500 0.000000 
0.375000 0.375000 0.000000 
0.312500 0.375000 0.000000 
0.375000 0.312500 0.000000 
0.437500 0.312500 0.000000 
0.437500 0.375000 0.000000 
0.375000 0.375000 0.000000 
0.437500 0.312500 0.000000 
0.500000 0.312500 0.000000 
0.500000 0.375000 0.000000 
0.437500 0.375000 0.000000 
0.500000 0.312500 0.000000 
[...]
CELL_DATA 256
FIELD FieldData 1
material 1 256 int
1
1
1
1
1
1
1
1
1
1
1
1
1
1
1
1
1
1
1
1
1
1
1
1
1
1
1
1
1
1
1
1
1
1
1
1
1
1
1
1
1
1
1
1
1
1
1
1
1
1
1
1
1
1
1
1
1
1
1
1
1
1
1
1
1
1
1
1
1
1
1
1
1
1
1
1
1
1
1
1
1
1
1
1
1
1
1
1
1
1
1
1
1
1
1
1
1
1
1
1
1
1
1
1
1
1
1
1
1
1
1
1
1
1
1
1
1
1
1
1
1
1
1
1
1
1
1
1
1
1
1
1
1
1
1
1
1
1
1
1
1
1
1
1
1
1
1
1
1
1
1
1
1
1
1
1
1
1
1
1
1
1
1
1
1
1
1
1
1
1
1
1
1
1
1
1
1
1
1
1
1
1
1
1
1
1
1
1
1
1
1
1
1
1
1
1
1
1
1
1
1
1
1
1
1
1
1
1
1
1
1
1
1
1
1
1
1
1
1
1
1
1
1
1
1
1
1
1
1
1
1
1
1
1
1
1
1
1
1
1
1
1
1
1
1
1
1
1
1
1
1
1
1
1
1
1
POINT_DATA 1024 SCALARS flux_g1 double 
LOOKUP_TABLE   default 
1.407530
1.182936
1.182936
1.407530
1.177345
0.989481
0.989481
1.177345
0.984805
0.827663
0.827663
0.984805
0.823752
0.692309
0.692309
0.823752
0.689037
0.579090
0.579090
0.689037
0.576354
0.484387
0.484385
0.576354
0.482097
0.405169
0.405173
0.482091
0.403248
0.338919
0.338954
0.403260
0.337331
0.283527
0.283421
0.337419
0.282248
0.236976
0.236566
0.282028
0.235724
0.197858
0.198674
0.234910
0.196454
0.166773
0.170419
0.197673
0.166238
0.143078
0.143628
0.171830
0.144485
0.118593
0.104250
0.146151
0.120372
0.083760
0.053635
0.103990
0.083135
0.042715
0.012307
0.049952
1.407530
1.182936
1.182936
1.407530
1.177345
0.989481
0.989481
1.177345
0.984805
0.827663
0.827663
0.984805
0.823752
0.692309
0.692309
0.823752
0.689037
0.579090
0.579089
0.689038
0.576354
0.484385
0.484385
0.576349
0.482090
0.405176
0.405211
0.482093
0.403269
0.338956
0.338882
0.403365
0.337426
0.283366
0.282893
0.337264
0.281915
0.236559
0.237262
0.280945
0.234876
0.199117
0.203323
0.235929
0.198365
0.170815
0.172003
0.204944
0.172491
0.142118
0.125422
0.175216
0.144395
0.100664
0.064213
0.125215
0.099956
0.051025
0.014091
0.059652
0.047367
0.012904
-0.006589
0.009601
1.407530
1.182936
1.182936
1.407530
1.177345
0.989481
0.989481
1.177345
0.984805
0.827663
0.827663
0.984805
0.823752
0.692309
0.692309
0.823752
0.689038
0.579089
0.579087
0.689035
0.576347
0.484388
0.484419
0.576343
0.482099
0.405217
0.405181
0.482193
0.403381
0.338830
0.338313
0.403297
0.337151
0.282854
0.283377
0.336044
0.280852
0.237740
0.242520
0.281613
0.236695
0.203881
0.205952
0.244349
0.205864
0.170308
0.150968
0.210052
0.173230
0.121031
0.076895
0.150866
0.120238
0.060948
0.016037
0.071230
0.056421
0.014863
-0.008311
0.010532
0.010831
-0.003710
-0.006889
-0.009961
1.407530
1.182936
1.182936
1.407530
1.177345
0.989481
0.989481
1.177345
0.984805
0.827663
0.827663
0.984805
0.823752
0.692308
0.692306
0.823751
0.689033
0.579088
0.579111
0.689024
0.576346
0.484427
0.484430
0.576425
0.482217
0.405136
0.404609
0.482225
0.403194
0.338238
0.338505
0.401995
0.335877
0.283873
0.289195
0.336193
0.282434
0.243282
0.246550
0.291205
0.245604
0.204084
0.181821
0.251789
0.207842
0.145590
0.092109
0.181906
0.144719
0.072798
0.018116
0.085049
0.067176
0.017038
-0.010467
0.011358
0.012131
-0.004720
-0.007914
-0.012305
-0.006187
-0.004711
-0.000941
-0.007069
1.407530
1.182936
1.182936
1.407530
1.177345
0.989481
0.989481
1.177345
0.984805
0.827663
0.827661
0.984805
0.823750
0.692306
0.692319
0.823741
0.689025
0.579120
0.579154
0.689078
0.576452
0.484398
0.483906
0.576553
0.482143
0.404498
0.404438
0.480934
0.401745
0.338991
0.344757
0.401442
0.337033
0.290208
0.295063
0.346879
0.292888
0.244540
0.219123
0.301767
0.249388
0.175233
0.110375
0.219522
0.174300
0.086945
0.020266
0.101538
0.079941
0.019420
-0.013159
0.011960
0.013447
-0.005977
-0.009011
-0.015166
-0.007605
-0.005333
-0.000738
-0.007879
-0.004814
-0.000790
0.001077
-0.000018
1.407530
1.182936
1.182936
1.407530
1.177345
0.989481
0.989480
1.177345
0.984805
0.827661
0.827665
0.984799
0.823740
0.692325
0.692375
0.823763
0.689103
0.579138
0.578738
0.689273
0.576505
0.483767
0.483334
0.575405
0.480602
0.404875
0.410886
0.479509
0.402237
0.346066
0.352974
0.412978
0.349098
0.292978
0.264279
0.361565
0.299253
0.211054
0.132326
0.265189
0.210095
0.103835
0.022380
0.121210
0.095072
0.021975
-0.016512
0.012158
0.014705
-0.007531
-0.010144
-0.018636
-0.009301
-0.005970
-0.000420
-0.008644
-0.005272
-0.000674
0.001252
0.000368
-0.000207
0.000555
0.000273
0.001190
1.407530
1.182936
1.182936
1.407530
1.177346
0.989480
0.989480
1.177344
0.984797
0.827668
0.827713
0.984797
0.823781
0.692375
0.692115
0.823972
0.689268
0.578587
0.577795
0.688422
0.575011
0.483671
0.489589
0.573008
0.480166
0.412522
0.422004
0.491393
0.415841
0.350935
0.319025
0.433022
0.359088
0.254404
0.158744
0.320757
0.253487
0.123996
0.024278
0.144674
0.112977
0.024635
-0.020671
0.011684
0.015792
-0.009436
-0.011247
-0.022813
-0.011306
-0.006586
0.000038
-0.009287
-0.005666
-0.000493
0.001415
0.000871
0.000005
0.000633
0.000216
0.001289
0.000611
0.000148
-0.000115
0.000097
1.407530
1.182936
1.182935
1.407530
1.177342
0.989480
0.989504
1.177334
0.984804
0.827722
0.827617
0.984954
0.824004
0.691980
0.690940
0.823542
0.688014
0.577976
0.583296
0.685127
0.573402
0.491547
0.504118
0.584368
0.494989
0.420213
0.385514
0.518243
0.430850
0.306961
0.190596
0.388568
0.306208
0.148056
0.025660
0.172651
0.134116
0.027277
-0.025801
0.010129
0.016533
-0.011747
-0.012216
-0.027783
-0.013636
-0.007128
0.000661
-0.009692
-0.005941
-0.000239
0.001543
0.001496
0.000271
0.000695
0.000135
0.001339
0.000640
0.000115
-0.000130
0.000019
0.000057
-0.000047
-0.000022
-0.000119
1.407529
1.182935
1.182940
1.407526
1.177334
0.989513
0.989519
1.177402
0.985002
0.827528
0.826484
0.984957
0.823198
0.690927
0.694994
0.819736
0.685116
0.585499
0.601505
0.694612
0.588713
0.502890
0.466437
0.619560
0.516830
0.370831
0.229109
0.471628
0.370459
0.176762
0.026041
0.205996
0.158992
0.029691
-0.032074
0.006881
0.016669
-0.014505
-0.012886
-0.033595
-0.016279
-0.007516
0.001458
-0.009697
-0.006020
0.000091
0.001605
0.002229
0.000583
0.000729
0.000034
0.001317
0.000637
0.000073
-0.000134
-0.000070
0.000019
-0.000051
-0.000011
-0.000115
-0.000047
-0.000009
0.000009
-0.000001
1.407525
1.182943
1.182969
1.407532
1.177437
0.989487
0.988768
1.177643
0.984763
0.826296
0.828458
0.981456
0.819219
0.697233
0.716505
0.825528
0.699550
0.601305
0.565162
0.739396
0.619656
0.448688
0.275875
0.573876
0.449082
0.211003
0.024625
0.245715
0.188128
0.031529
-0.039637
0.001003
0.015812
-0.017718
-0.013010
-0.040202
-0.019162
-0.007639
0.002412
-0.009080
-0.005810
0.000487
0.001563
0.003020
0.000919
0.000719
-0.000079
0.001193
0.000591
0.000025
-0.000126
-0.000159
-0.000020
-0.000050
0.000000
-0.000099
-0.000042
-0.000004
0.000008
0.000007
-0.000001
0.000003
0.000000
0.000007
1.407540
1.182971
1.182747
1.407688
1.177623
0.988526
0.988591
1.175529
0.980502
0.830337
0.851479
0.981710
0.830545
0.717953
0.685898
0.879897
0.742199
0.543998
0.333055
0.700607
0.545861
0.251827
0.020076
0.292990
0.221998
0.032221
-0.048538
-0.008952
0.013400
-0.021317
-0.012232
-0.047355
-0.022099
-0.007349
0.003450
-0.007569
-0.005202
0.000915
0.001377
0.003767
0.001235
0.000652
-0.000186
0.000950
0.000496
-0.000022
-0.000103
-0.000229
-0.000053
-0.000043
0.000009
-0.000073
-0.000033
-0.000000
0.000006
0.000012
0.000002
0.000002
-0.000000
0.000004
0.000002
0.000000
-0.000000
-0.000001
1.407731
1.182626
1.181719
1.407316
1.174563
0.989592
1.008721
1.170025
0.985681
0.855198
0.833753
1.042077
0.887211
0.661367
0.403823
0.859213
0.666046
0.300471
0.010068
0.349190
0.260874
0.030832
-0.058533
-0.025277
0.008623
-0.025060
-0.010078
-0.054370
-0.024706
-0.006470
0.004400
-0.004878
-0.004101
0.001307
0.001022
0.004286
0.001460
0.000519
-0.000261
0.000590
0.000356
-0.000058
-0.000067
-0.000261
-0.000073
-0.000031
0.000014
-0.000040
-0.000021
0.000003
0.000004
0.000014
0.000003
0.000002
-0.000001
0.000002
0.000001
-0.000000
-0.000000
-0.000001
-0.000000
-0.000000
0.000000
-0.000000
1.406949
1.181744
1.191530
1.401229
1.171238
1.014621
1.014031
1.224084
1.056206
0.807140
0.493505
1.060489
0.817461
0.358377
-0.009707
0.415869
0.304430
0.025803
-0.068613
-0.051708
0.000374
-0.028347
-0.006021
-0.059663
-0.026248
-0.004847
0.004936
-0.000851
-0.002484
0.001548
0.000521
0.004302
0.001500
0.000331
-0.000275
0.000165
0.000188
-0.000074
-0.000028
-0.000236
-0.000073
-0.000017
0.000013
-0.000009
-0.000010
0.000003
0.000001
0.000011
0.000003
0.000001
-0.000001
0.000000
0.000000
-0.000000
-0.000000
-0.000000
-0.000000
-0.000000
0.000000
-0.000000
-0.000000
0.000000
0.000000
0.000000
1.399715
1.196427
1.226520
1.420721
1.245855
0.990357
0.613437
1.320606
1.013244
0.427195
-0.048132
0.494693
0.350614
0.014492
-0.075733
-0.094504
-0.012669
-0.029837
0.000180
-0.059791
-0.025417
-0.002476
0.004570
0.004143
-0.000533
0.001485
-0.000008
0.003510
0.001262
0.000129
-0.000210
-0.000201
0.000036
-0.000063
0.000003
-0.000157
-0.000053
-0.000005
0.000008
0.000010
-0.000001
0.000002
-0.000000
0.000006
0.000002
0.000000
-0.000000
-0.000000
0.000000
-0.000000
0.000000
-0.000000
-0.000000
-0.000000
0.000000
0.000000
0.000000
0.000000
-0.000000
0.000000
0.000000
0.000000
-0.000000
-0.000000
1.436796
1.221996
0.800977
1.655410
1.280685
0.508696
-0.127154
0.587097
0.391722
-0.007541
-0.071068
-0.163931
-0.031103
-0.026698
0.007213
-0.047657
-0.020175
0.000135
0.002879
0.008247
0.001134
0.001012
-0.000319
0.001849
0.000746
-0.000015
-0.000094
-0.000332
-0.000046
-0.000033
0.000012
-0.000058
-0.000024
0.000001
0.000003
0.000012
0.000002
0.000001
-0.000000
0.000002
0.000001
-0.000000
-0.000000
-0.000000
-0.000000
-0.000000
0.000000
-0.000000
-0.000000
0.000000
0.000000
0.000000
0.000000
0.000000
-0.000000
0.000000
0.000000
-0.000000
-0.000000
-0.000000
-0.000000
-0.000000
0.000000
-0.000000
1.705812
0.604212
-0.324859
0.692360
0.393937
-0.045168
-0.028967
-0.266938
-0.048642
-0.014009
0.008460
-0.012300
-0.008799
0.001350
0.000562
0.006751
0.001345
0.000320
-0.000217
0.000183
0.000192
-0.000039
-0.000010
-0.000169
-0.000036
-0.000007
0.000005
-0.000002
-0.000004
0.000001
0.000000
0.000004
0.000001
0.000000
-0.000000
-0.000000
0.000000
-0.000000
-0.000000
-0.000000
-0.000000
-0.000000
0.000000
0.000000
-0.000000
0.000000
-0.000000
0.000000
0.000000
0.000000
-0.000000
-0.000000
0.000000
-0.000000
0.000000
-0.000000
-0.000000
-0.000000
0.000000
0.000000
-0.000000
0.000000
-0.000000
0.000000
 
