# vtk DataFile Version 3.0 
Date: 3/9/2016   Time: 10:1
ASCII 
DATASET UNSTRUCTURED_GRID 
 
POINTS 4096 float 
0.000000 0.000000 0.000000 
0.031250 0.000000 0.000000 
0.031250 0.031250 0.000000 
0.000000 0.031250 0.000000 
0.031250 0.000000 0.000000 
0.062500 0.000000 0.000000 
0.062500 0.031250 0.000000 
0.031250 0.031250 0.000000 
0.062500 0.000000 0.000000 
0.093750 0.000000 0.000000 
0.093750 0.031250 0.000000 
0.062500 0.031250 0.000000 
0.093750 0.000000 0.000000 
0.125000 0.000000 0.000000 
0.125000 0.031250 0.000000 
0.093750 0.031250 0.000000 
0.125000 0.000000 0.000000 
0.156250 0.000000 0.000000 
0.156250 0.031250 0.000000 
0.125000 0.031250 0.000000 
0.156250 0.000000 0.000000 
0.187500 0.000000 0.000000 
0.187500 0.031250 0.000000 
0.156250 0.031250 0.000000 
0.187500 0.000000 0.000000 
0.218750 0.000000 0.000000 
0.218750 0.031250 0.000000 
0.187500 0.031250 0.000000 
0.218750 0.000000 0.000000 
0.250000 0.000000 0.000000 
0.250000 0.031250 0.000000 
0.218750 0.031250 0.000000 
0.250000 0.000000 0.000000 
0.281250 0.000000 0.000000 
0.281250 0.031250 0.000000 
0.250000 0.031250 0.000000 
0.281250 0.000000 0.000000 
0.312500 0.000000 0.000000 
0.312500 0.031250 0.000000 
0.281250 0.031250 0.000000 
0.312500 0.000000 0.000000 
0.343750 0.000000 0.000000 
0.343750 0.031250 0.000000 
0.312500 0.031250 0.000000 
0.343750 0.000000 0.000000 
0.375000 0.000000 0.000000 
0.375000 0.031250 0.000000 
0.343750 0.031250 0.000000 
0.375000 0.000000 0.000000 
0.406250 0.000000 0.000000 
0.406250 0.031250 0.000000 
0.375000 0.031250 0.000000 
0.406250 0.000000 0.000000 
0.437500 0.000000 0.000000 
0.437500 0.031250 0.000000 
0.406250 0.031250 0.000000 
0.437500 0.000000 0.000000 
0.468750 0.000000 0.000000 
0.468750 0.031250 0.000000 
0.437500 0.031250 0.000000 
0.468750 0.000000 0.000000 
0.500000 0.000000 0.000000 
0.500000 0.031250 0.000000 
0.468750 0.031250 0.000000 
0.500000 0.000000 0.000000 
0.531250 0.000000 0.000000 
0.531250 0.031250 0.000000 
0.500000 0.031250 0.000000 
0.531250 0.000000 0.000000 
0.562500 0.000000 0.000000 
0.562500 0.031250 0.000000 
0.531250 0.031250 0.000000 
0.562500 0.000000 0.000000 
0.593750 0.000000 0.000000 
0.593750 0.031250 0.000000 
0.562500 0.031250 0.000000 
0.593750 0.000000 0.000000 
0.625000 0.000000 0.000000 
0.625000 0.031250 0.000000 
0.593750 0.031250 0.000000 
0.625000 0.000000 0.000000 
0.656250 0.000000 0.000000 
0.656250 0.031250 0.000000 
0.625000 0.031250 0.000000 
0.656250 0.000000 0.000000 
0.687500 0.000000 0.000000 
0.687500 0.031250 0.000000 
0.656250 0.031250 0.000000 
0.687500 0.000000 0.000000 
0.718750 0.000000 0.000000 
0.718750 0.031250 0.000000 
0.687500 0.031250 0.000000 
0.718750 0.000000 0.000000 
0.750000 0.000000 0.000000 
0.750000 0.031250 0.000000 
0.718750 0.031250 0.000000 
0.750000 0.000000 0.000000 
0.781250 0.000000 0.000000 
0.781250 0.031250 0.000000 
0.750000 0.031250 0.000000 
0.781250 0.000000 0.000000 
0.812500 0.000000 0.000000 
0.812500 0.031250 0.000000 
0.781250 0.031250 0.000000 
0.812500 0.000000 0.000000 
0.843750 0.000000 0.000000 
0.843750 0.031250 0.000000 
0.812500 0.031250 0.000000 
0.843750 0.000000 0.000000 
0.875000 0.000000 0.000000 
0.875000 0.031250 0.000000 
0.843750 0.031250 0.000000 
0.875000 0.000000 0.000000 
0.906250 0.000000 0.000000 
0.906250 0.031250 0.000000 
0.875000 0.031250 0.000000 
0.906250 0.000000 0.000000 
0.937500 0.000000 0.000000 
0.937500 0.031250 0.000000 
0.906250 0.031250 0.000000 
0.937500 0.000000 0.000000 
0.968750 0.000000 0.000000 
0.968750 0.031250 0.000000 
0.937500 0.031250 0.000000 
0.968750 0.000000 0.000000 
1.000000 0.000000 0.000000 
1.000000 0.031250 0.000000 
0.968750 0.031250 0.000000 
0.000000 0.031250 0.000000 
0.031250 0.031250 0.000000 
0.031250 0.062500 0.000000 
0.000000 0.062500 0.000000 
0.031250 0.031250 0.000000 
0.062500 0.031250 0.000000 
0.062500 0.062500 0.000000 
0.031250 0.062500 0.000000 
0.062500 0.031250 0.000000 
0.093750 0.031250 0.000000 
0.093750 0.062500 0.000000 
0.062500 0.062500 0.000000 
0.093750 0.031250 0.000000 
0.125000 0.031250 0.000000 
0.125000 0.062500 0.000000 
0.093750 0.062500 0.000000 
0.125000 0.031250 0.000000 
0.156250 0.031250 0.000000 
0.156250 0.062500 0.000000 
0.125000 0.062500 0.000000 
0.156250 0.031250 0.000000 
0.187500 0.031250 0.000000 
0.187500 0.062500 0.000000 
0.156250 0.062500 0.000000 
0.187500 0.031250 0.000000 
0.218750 0.031250 0.000000 
0.218750 0.062500 0.000000 
0.187500 0.062500 0.000000 
0.218750 0.031250 0.000000 
0.250000 0.031250 0.000000 
0.250000 0.062500 0.000000 
0.218750 0.062500 0.000000 
0.250000 0.031250 0.000000 
0.281250 0.031250 0.000000 
0.281250 0.062500 0.000000 
0.250000 0.062500 0.000000 
0.281250 0.031250 0.000000 
0.312500 0.031250 0.000000 
0.312500 0.062500 0.000000 
0.281250 0.062500 0.000000 
0.312500 0.031250 0.000000 
0.343750 0.031250 0.000000 
0.343750 0.062500 0.000000 
0.312500 0.062500 0.000000 
0.343750 0.031250 0.000000 
0.375000 0.031250 0.000000 
0.375000 0.062500 0.000000 
0.343750 0.062500 0.000000 
0.375000 0.031250 0.000000 
0.406250 0.031250 0.000000 
0.406250 0.062500 0.000000 
0.375000 0.062500 0.000000 
0.406250 0.031250 0.000000 
0.437500 0.031250 0.000000 
0.437500 0.062500 0.000000 
0.406250 0.062500 0.000000 
0.437500 0.031250 0.000000 
0.468750 0.031250 0.000000 
0.468750 0.062500 0.000000 
0.437500 0.062500 0.000000 
0.468750 0.031250 0.000000 
0.500000 0.031250 0.000000 
0.500000 0.062500 0.000000 
0.468750 0.062500 0.000000 
0.500000 0.031250 0.000000 
0.531250 0.031250 0.000000 
0.531250 0.062500 0.000000 
0.500000 0.062500 0.000000 
0.531250 0.031250 0.000000 
0.562500 0.031250 0.000000 
0.562500 0.062500 0.000000 
0.531250 0.062500 0.000000 
0.562500 0.031250 0.000000 
0.593750 0.031250 0.000000 
0.593750 0.062500 0.000000 
0.562500 0.062500 0.000000 
0.593750 0.031250 0.000000 
0.625000 0.031250 0.000000 
0.625000 0.062500 0.000000 
0.593750 0.062500 0.000000 
0.625000 0.031250 0.000000 
0.656250 0.031250 0.000000 
0.656250 0.062500 0.000000 
0.625000 0.062500 0.000000 
0.656250 0.031250 0.000000 
0.687500 0.031250 0.000000 
0.687500 0.062500 0.000000 
0.656250 0.062500 0.000000 
0.687500 0.031250 0.000000 
0.718750 0.031250 0.000000 
0.718750 0.062500 0.000000 
0.687500 0.062500 0.000000 
0.718750 0.031250 0.000000 
0.750000 0.031250 0.000000 
0.750000 0.062500 0.000000 
0.718750 0.062500 0.000000 
0.750000 0.031250 0.000000 
0.781250 0.031250 0.000000 
0.781250 0.062500 0.000000 
0.750000 0.062500 0.000000 
0.781250 0.031250 0.000000 
0.812500 0.031250 0.000000 
0.812500 0.062500 0.000000 
0.781250 0.062500 0.000000 
0.812500 0.031250 0.000000 
0.843750 0.031250 0.000000 
0.843750 0.062500 0.000000 
0.812500 0.062500 0.000000 
0.843750 0.031250 0.000000 
0.875000 0.031250 0.000000 
0.875000 0.062500 0.000000 
0.843750 0.062500 0.000000 
0.875000 0.031250 0.000000 
0.906250 0.031250 0.000000 
0.906250 0.062500 0.000000 
0.875000 0.062500 0.000000 
0.906250 0.031250 0.000000 
0.937500 0.031250 0.000000 
0.937500 0.062500 0.000000 
0.906250 0.062500 0.000000 
0.937500 0.031250 0.000000 
0.968750 0.031250 0.000000 
0.968750 0.062500 0.000000 
0.937500 0.062500 0.000000 
0.968750 0.031250 0.000000 
1.000000 0.031250 0.000000 
1.000000 0.062500 0.000000 
0.968750 0.062500 0.000000 
0.000000 0.062500 0.000000 
0.031250 0.062500 0.000000 
0.031250 0.093750 0.000000 
0.000000 0.093750 0.000000 
0.031250 0.062500 0.000000 
0.062500 0.062500 0.000000 
0.062500 0.093750 0.000000 
0.031250 0.093750 0.000000 
0.062500 0.062500 0.000000 
0.093750 0.062500 0.000000 
0.093750 0.093750 0.000000 
0.062500 0.093750 0.000000 
0.093750 0.062500 0.000000 
0.125000 0.062500 0.000000 
0.125000 0.093750 0.000000 
0.093750 0.093750 0.000000 
0.125000 0.062500 0.000000 
0.156250 0.062500 0.000000 
0.156250 0.093750 0.000000 
0.125000 0.093750 0.000000 
0.156250 0.062500 0.000000 
0.187500 0.062500 0.000000 
0.187500 0.093750 0.000000 
0.156250 0.093750 0.000000 
0.187500 0.062500 0.000000 
0.218750 0.062500 0.000000 
0.218750 0.093750 0.000000 
0.187500 0.093750 0.000000 
0.218750 0.062500 0.000000 
0.250000 0.062500 0.000000 
0.250000 0.093750 0.000000 
0.218750 0.093750 0.000000 
0.250000 0.062500 0.000000 
0.281250 0.062500 0.000000 
0.281250 0.093750 0.000000 
0.250000 0.093750 0.000000 
0.281250 0.062500 0.000000 
0.312500 0.062500 0.000000 
0.312500 0.093750 0.000000 
0.281250 0.093750 0.000000 
0.312500 0.062500 0.000000 
0.343750 0.062500 0.000000 
0.343750 0.093750 0.000000 
0.312500 0.093750 0.000000 
0.343750 0.062500 0.000000 
0.375000 0.062500 0.000000 
0.375000 0.093750 0.000000 
0.343750 0.093750 0.000000 
0.375000 0.062500 0.000000 
0.406250 0.062500 0.000000 
0.406250 0.093750 0.000000 
0.375000 0.093750 0.000000 
0.406250 0.062500 0.000000 
0.437500 0.062500 0.000000 
0.437500 0.093750 0.000000 
0.406250 0.093750 0.000000 
0.437500 0.062500 0.000000 
0.468750 0.062500 0.000000 
0.468750 0.093750 0.000000 
0.437500 0.093750 0.000000 
0.468750 0.062500 0.000000 
0.500000 0.062500 0.000000 
0.500000 0.093750 0.000000 
0.468750 0.093750 0.000000 
0.500000 0.062500 0.000000 
0.531250 0.062500 0.000000 
0.531250 0.093750 0.000000 
0.500000 0.093750 0.000000 
0.531250 0.062500 0.000000 
0.562500 0.062500 0.000000 
0.562500 0.093750 0.000000 
0.531250 0.093750 0.000000 
0.562500 0.062500 0.000000 
0.593750 0.062500 0.000000 
0.593750 0.093750 0.000000 
0.562500 0.093750 0.000000 
0.593750 0.062500 0.000000 
0.625000 0.062500 0.000000 
0.625000 0.093750 0.000000 
0.593750 0.093750 0.000000 
0.625000 0.062500 0.000000 
0.656250 0.062500 0.000000 
0.656250 0.093750 0.000000 
0.625000 0.093750 0.000000 
0.656250 0.062500 0.000000 
0.687500 0.062500 0.000000 
0.687500 0.093750 0.000000 
0.656250 0.093750 0.000000 
0.687500 0.062500 0.000000 
0.718750 0.062500 0.000000 
0.718750 0.093750 0.000000 
0.687500 0.093750 0.000000 
0.718750 0.062500 0.000000 
0.750000 0.062500 0.000000 
0.750000 0.093750 0.000000 
0.718750 0.093750 0.000000 
0.750000 0.062500 0.000000 
[...]
CELL_DATA 1024
FIELD FieldData 1
material 1 1024 int
1
1
1
1
1
1
1
1
1
1
1
1
1
1
1
1
1
1
1
1
1
1
1
1
1
1
1
1
1
1
1
1
1
1
1
1
1
1
1
1
1
1
1
1
1
1
1
1
1
1
1
1
1
1
1
1
1
1
1
1
1
1
1
1
1
1
1
1
1
1
1
1
1
1
1
1
1
1
1
1
1
1
1
1
1
1
1
1
1
1
1
1
1
1
1
1
1
1
1
1
1
1
1
1
1
1
1
1
1
1
1
1
1
1
1
1
1
1
1
1
1
1
1
1
1
1
1
1
1
1
1
1
1
1
1
1
1
1
1
1
1
1
1
1
1
1
1
1
1
1
1
1
1
1
1
1
1
1
1
1
1
1
1
1
1
1
1
1
1
1
1
1
1
1
1
1
1
1
1
1
1
1
1
1
1
1
1
1
1
1
1
1
1
1
1
1
1
1
1
1
1
1
1
1
1
1
1
1
1
1
1
1
1
1
1
1
1
1
1
1
1
1
1
1
1
1
1
1
1
1
1
1
1
1
1
1
1
1
1
1
1
1
1
1
1
1
1
1
1
1
1
1
1
1
1
1
1
1
1
1
1
1
1
1
1
1
1
1
1
1
1
1
1
1
1
1
1
1
1
1
1
1
1
1
1
1
1
1
1
1
1
1
1
1
1
1
1
1
1
1
1
1
1
1
1
1
1
1
1
1
1
1
1
1
1
1
1
1
1
1
1
1
1
1
1
1
1
1
1
1
1
1
1
1
1
1
1
1
1
1
1
1
1
1
1
1
1
1
1
1
1
1
1
1
1
1
1
1
1
1
1
1
1
1
1
1
1
1
1
1
1
1
1
1
1
1
1
1
1
1
1
1
1
1
1
1
1
1
1
1
1
1
1
1
1
1
1
1
1
1
1
1
1
1
1
1
1
1
1
1
1
1
1
1
1
1
1
1
1
1
1
1
1
1
1
1
1
1
1
1
1
1
1
1
1
1
1
1
1
1
1
1
1
1
1
1
1
1
1
1
1
1
1
1
1
1
1
1
1
1
1
1
1
1
1
1
1
1
1
1
1
1
1
1
1
1
1
1
1
1
1
1
1
1
1
1
1
1
1
1
1
1
1
1
1
1
1
1
1
1
1
1
1
1
1
1
1
1
1
1
1
1
1
1
1
1
1
1
1
1
1
1
1
1
1
1
1
1
1
1
1
1
1
1
1
1
1
1
1
1
1
1
1
1
1
1
1
1
1
1
1
1
1
1
1
1
1
1
1
1
1
1
1
1
1
1
1
1
1
1
1
1
1
1
1
1
1
1
1
1
1
1
1
1
1
1
1
1
1
1
1
1
1
1
1
1
1
1
1
1
1
1
1
1
1
1
1
1
1
1
1
1
1
1
1
1
1
1
1
1
1
1
1
1
1
1
1
1
1
1
1
1
1
1
1
1
1
1
1
1
1
1
1
1
1
1
1
1
1
1
1
1
1
1
1
1
1
1
1
1
1
1
1
1
1
1
1
1
1
1
1
1
1
1
1
1
1
1
1
1
1
1
1
1
1
1
1
1
1
1
1
1
1
1
1
1
1
1
1
1
1
1
1
1
1
1
1
1
1
1
1
1
1
1
1
1
1
1
1
1
1
1
1
1
1
1
1
1
1
1
1
1
1
1
1
1
1
1
1
1
1
1
1
1
1
1
1
1
1
1
1
1
1
1
1
1
1
1
1
1
1
1
1
1
1
1
1
1
1
1
1
1
1
1
1
1
1
1
1
1
1
1
1
1
1
1
1
1
1
1
1
1
1
1
1
1
1
1
1
1
1
1
1
1
1
1
1
1
1
1
1
1
1
1
1
1
1
1
1
1
1
1
1
1
1
1
1
1
1
1
1
1
1
1
1
1
1
1
1
1
1
1
1
1
1
1
1
1
1
1
1
1
1
1
1
1
1
1
1
1
1
1
1
1
1
1
1
1
1
1
1
1
1
1
1
1
1
1
1
1
1
1
1
1
1
1
1
1
1
1
1
1
1
1
1
1
1
1
1
1
1
1
1
1
1
1
1
1
1
1
1
1
1
1
1
1
1
1
1
1
1
1
1
1
1
1
1
1
1
1
1
1
1
1
1
1
1
1
1
1
1
1
1
1
1
1
1
1
1
1
1
1
1
1
1
1
1
1
1
1
1
1
1
1
1
1
1
1
1
1
1
1
1
1
1
1
1
1
1
1
1
1
1
1
1
1
1
1
1
1
1
1
1
1
1
1
1
1
1
1
1
1
1
1
1
1
1
1
1
1
1
1
1
1
1
1
1
1
1
1
1
1
1
1
POINT_DATA 4096 SCALARS flux_g1 double 
LOOKUP_TABLE   default 
1.412443
1.293423
1.293423
1.412443
1.291804
1.182950
1.182950
1.291804
1.181469
1.081912
1.081912
1.181469
1.080557
0.989504
0.989504
1.080557
0.988265
0.904989
0.904989
0.988265
0.903856
0.827693
0.827693
0.903856
0.826656
0.756998
0.756998
0.826656
0.756050
0.692342
0.692342
0.756050
0.691475
0.633208
0.633208
0.691475
0.632415
0.579124
0.579124
0.632415
0.578399
0.529660
0.529660
0.578399
0.528997
0.484421
0.484421
0.528997
0.483815
0.443046
0.443046
0.483815
0.442491
0.405205
0.405205
0.442491
0.404697
0.370596
0.370596
0.404697
0.370131
0.338942
0.338942
0.370131
0.338518
0.309993
0.309993
0.338518
0.309604
0.283516
0.283516
0.309605
0.283161
0.259301
0.259299
0.283162
0.258976
0.237151
0.237148
0.258974
0.236853
0.216893
0.216901
0.236846
0.216617
0.198382
0.198416
0.216630
0.198138
0.181474
0.181452
0.198200
0.181281
0.165921
0.165675
0.181262
0.165731
0.151461
0.151210
0.165358
0.151135
0.138359
0.139140
0.150694
0.137896
0.127604
0.130127
0.138830
0.127429
0.119352
0.121365
0.130763
0.120057
0.110544
0.106322
0.123060
0.112069
0.095565
0.080368
0.107953
0.096862
0.071357
0.047126
0.080465
0.071281
0.041926
0.017184
0.045422
1.412443
1.293423
1.293423
1.412443
1.291804
1.182950
1.182950
1.291804
1.181469
1.081912
1.081912
1.181469
1.080557
0.989504
0.989504
1.080557
0.988265
0.904989
0.904989
0.988265
0.903856
0.827693
0.827693
0.903856
0.826656
0.756998
0.756998
0.826656
0.756050
0.692342
0.692342
0.756050
0.691475
0.633208
0.633208
0.691475
0.632415
0.579124
0.579124
0.632415
0.578399
0.529660
0.529660
0.578399
0.528997
0.484421
0.484421
0.528997
0.483815
0.443046
0.443046
0.483815
0.442491
0.405205
0.405205
0.442491
0.404697
0.370596
0.370596
0.404697
0.370131
0.338942
0.338942
0.370131
0.338518
0.309993
0.309993
0.338518
0.309605
0.283516
0.283515
0.309605
0.283162
0.259299
0.259296
0.283160
0.258973
0.237148
0.237155
0.258966
0.236846
0.216905
0.216941
0.236857
0.216637
0.198418
0.198406
0.216701
0.198206
0.181428
0.181180
0.198202
0.181226
0.165632
0.165336
0.180847
0.165288
0.151269
0.152036
0.164774
0.150760
0.139423
0.142131
0.151669
0.139205
0.130384
0.132697
0.142797
0.131137
0.120899
0.116485
0.134570
0.122587
0.104698
0.088137
0.118320
0.106157
0.078218
0.051545
0.088263
0.078145
0.045830
0.018564
0.049648
0.044134
0.017549
-0.000830
0.015998
1.412443
1.293423
1.293423
1.412443
1.291804
1.182950
1.182950
1.291804
1.181469
1.081912
1.081912
1.181469
1.080557
0.989504
0.989504
1.080557
0.988265
0.904989
0.904989
0.988265
0.903856
0.827693
0.827693
0.903856
0.826656
0.756998
0.756998
0.826656
0.756050
0.692342
0.692342
0.756050
0.691475
0.633208
0.633208
0.691475
0.632415
0.579124
0.579124
0.632415
0.578399
0.529660
0.529660
0.578399
0.528997
0.484421
0.484421
0.528997
0.483815
0.443046
0.443046
0.483815
0.442491
0.405205
0.405205
0.442491
0.404697
0.370595
0.370596
0.404697
0.370131
0.338942
0.338943
0.370131
0.338518
0.309993
0.309993
0.338519
0.309605
0.283515
0.283511
0.309604
0.283159
0.259295
0.259300
0.283152
0.258965
0.237159
0.237195
0.258972
0.236863
0.216944
0.216943
0.236929
0.216709
0.198383
0.198135
0.216724
0.198168
0.181131
0.180786
0.197787
0.180768
0.165389
0.166129
0.180176
0.164830
0.152337
0.155234
0.165697
0.152071
0.142430
0.145080
0.155928
0.143231
0.132219
0.127625
0.147147
0.134088
0.114710
0.096668
0.129691
0.116352
0.085747
0.056381
0.096830
0.085678
0.050097
0.020042
0.054267
0.048209
0.018976
-0.001153
0.017189
0.016589
0.000850
-0.006633
-0.002999
1.412443
1.293423
1.293423
1.412443
1.291804
1.182950
1.182950
1.291804
1.181469
1.081912
1.081912
1.181469
1.080557
0.989504
0.989504
1.080557
0.988265
0.904989
0.904989
0.988265
0.903856
0.827693
0.827693
0.903856
0.826656
0.756998
0.756998
0.826656
0.756050
0.692342
0.692342
0.756050
0.691475
0.633208
0.633208
0.691475
0.632415
0.579124
0.579124
0.632415
0.578399
0.529660
0.529660
0.578399
0.528997
0.484421
0.484421
0.528997
0.483815
0.443046
0.443046
0.483815
0.442491
0.405205
0.405205
0.442491
0.404697
0.370596
0.370596
0.404697
0.370131
0.338943
0.338942
0.370132
0.338519
0.309992
0.309989
0.338518
0.309604
0.283511
0.283514
0.309596
0.283151
0.259304
0.259339
0.283154
0.258979
0.237199
0.237209
0.259044
0.236939
0.216922
0.216677
0.236973
0.216692
0.198081
0.197685
0.216314
0.197699
0.180831
0.181533
0.197025
0.180220
0.166449
0.169537
0.181026
0.166125
0.155581
0.158608
0.170256
0.156429
0.144593
0.139834
0.160888
0.146662
0.125684
0.106039
0.142162
0.127534
0.094010
0.061673
0.106244
0.093949
0.054760
0.021622
0.059314
0.052656
0.020508
-0.001536
0.018449
0.017859
0.000725
-0.007286
-0.003556
-0.000958
-0.004862
-0.004223
-0.007706
1.412443
1.293423
1.293423
1.412443
1.291804
1.182950
1.182950
1.291804
1.181469
1.081912
1.081912
1.181469
1.080557
0.989504
0.989504
1.080557
0.988265
0.904989
0.904989
0.988265
0.903856
0.827693
0.827693
0.903856
0.826656
0.756998
0.756998
0.826656
0.756050
0.692342
0.692342
0.756050
0.691475
0.633208
0.633208
0.691475
0.632415
0.579124
0.579124
0.632415
0.578399
0.529660
0.529660
0.578399
0.528997
0.484421
0.484421
0.528997
0.483815
0.443046
0.443046
0.483815
0.442491
0.405205
0.405205
0.442491
0.404697
0.370596
0.370596
0.404698
0.370132
0.338942
0.338939
0.370132
0.338518
0.309988
0.309989
0.338510
0.309595
0.283517
0.283551
0.309594
0.283159
0.259345
0.259366
0.283224
0.259056
0.237190
0.236953
0.259110
0.236944
0.216618
0.216171
0.236576
0.216217
0.197721
0.198369
0.215458
0.197054
0.181870
0.185149
0.197777
0.181479
0.169937
0.173385
0.185886
0.170832
0.158117
0.153216
0.175900
0.160407
0.137715
0.116335
0.155842
0.139800
0.103080
0.067463
0.116590
0.103030
0.059858
0.023308
0.064831
0.057511
0.022149
-0.001989
0.019777
0.019209
0.000565
-0.007998
-0.004198
-0.001272
-0.005331
-0.004470
-0.008419
-0.005760
-0.003376
-0.000556
-0.004044
1.412443
1.293423
1.293423
1.412443
1.291804
1.182950
1.182950
1.291804
1.181469
1.081912
1.081912
1.181469
1.080557
0.989504
0.989504
1.080557
0.988265
0.904989
0.904989
0.988265
0.903856
0.827693
0.827693
0.903856
0.826656
0.756998
0.756998
0.826656
0.756050
0.692342
0.692342
0.756050
0.691475
0.633208
0.633208
0.691475
0.632415
0.579124
0.579124
0.632415
0.578399
0.529660
0.529660
0.578399
0.528997
0.484421
0.484421
0.528997
0.483815
0.443046
0.443046
0.483814
0.442491
0.405205
0.405205
0.442492
0.404698
0.370596
0.370593
0.404698
0.370132
0.338938
0.338937
0.370125
0.338509
0.309991
0.310024
0.338505
0.309599
0.283558
0.283591
0.309660
0.283237
0.259349
0.259125
0.283311
0.259085
0.236889
0.236391
0.258735
0.236471
0.216194
0.216774
0.235626
0.215468
0.198723
0.202189
0.216085
0.198254
0.185608
0.189524
0.202937
0.186547
0.172896
0.167885
0.192297
0.175432
0.150905
0.127648
0.170848
0.153257
0.113040
0.073801
0.127966
0.113004
0.065429
0.025105
0.070860
0.062810
0.023906
-0.002523
0.021173
0.020641
0.000363
-0.008772
-0.004938
-0.001641
-0.005839
-0.004719
-0.009188
-0.006276
-0.003565
-0.000483
-0.004229
-0.003268
-0.000611
0.000796
-0.000095
1.412443
1.293423
1.293423
1.412443
1.291804
1.182950
1.182950
1.291804
1.181469
1.081912
1.081912
1.181469
1.080557
0.989504
0.989504
1.080557
0.988265
0.904989
0.904989
0.988265
0.903856
0.827693
0.827693
0.903856
0.826656
0.756998
0.756998
0.826656
0.756050
0.692342
0.692342
0.756050
0.691475
0.633208
0.633208
0.691475
0.632415
0.579124
0.579124
0.632415
0.578399
0.529660
0.529660
0.578399
0.528997
0.484421
0.484421
0.528997
0.483814
0.443046
0.443046
0.483815
0.442492
0.405205
0.405202
0.442492
0.404698
0.370592
0.370589
0.404692
0.370123
0.338939
0.338968
0.370116
0.338509
0.310031
0.310075
0.338564
0.309675
0.283577
0.283369
0.309769
0.283291
0.259057
0.258511
0.282967
0.258622
0.236401
0.236893
0.257692
0.235614
0.217141
0.220785
0.236096
0.216583
0.202713
0.207148
0.221534
0.203693
0.189046
0.183964
0.210202
0.191851
0.165366
0.140084
0.187311
0.168022
0.123978
0.080737
0.140477
0.123961
0.071518
0.027014
0.077448
0.068592
0.025783
-0.003151
0.022633
0.022156
0.000112
-0.009612
-0.005788
-0.002072
-0.006389
-0.004964
-0.010016
-0.006830
-0.003754
-0.000391
-0.004404
-0.003412
-0.000569
0.000879
0.000023
-0.000275
0.000486
0.000443
0.000937
1.412443
1.293423
1.293423
1.412443
1.291804
1.182950
1.182950
1.291804
1.181469
1.081912
1.081912
1.181469
1.080557
0.989504
0.989504
1.080557
0.988265
0.904989
0.904989
0.988265
0.903856
0.827693
0.827693
0.903856
0.826656
0.756998
0.756998
0.826656
0.756050
0.692342
0.692342
0.756050
0.691475
0.633208
0.633208
0.691475
0.632415
0.579124
0.579124
0.632415
0.578399
0.529660
0.529660
0.578399
0.528997
0.484421
0.484422
0.528997
0.483815
0.443046
0.443044
0.483816
0.442492
0.405202
0.405198
0.442488
0.404691
0.370591
0.370616
0.404681
0.370119
0.338976
0.339029
0.370167
0.338581
0.310064
0.309879
0.338692
0.309755
0.283298
0.282707
0.309465
0.282848
0.258503
0.258891
0.281837
0.257654
0.237271
0.241081
0.257972
0.236611
0.221382
0.226389
0.241818
0.222395
0.206690
0.201590
0.229750
0.209793
0.181222
0.153758
0.205373
0.184225
0.135993
0.088330
0.154242
0.136001
0.078174
0.029038
0.084648
0.074902
0.027785
-0.003887
0.024153
0.023753
-0.000196
-0.010523
-0.006763
-0.002574
-0.006983
-0.005203
-0.010905
-0.007421
-0.003940
-0.000279
-0.004563
-0.003547
-0.000515
0.000965
0.000160
-0.000202
0.000538
0.000443
0.001013
0.000593
0.000307
-0.000016
0.000366
1.412443
1.293423
1.293423
1.412443
1.291804
1.182950
1.182950
1.291804
1.181469
1.081912
1.081912
1.181469
1.080557
0.989504
0.989504
1.080557
0.988265
0.904989
0.904989
0.988265
0.903856
0.827693
0.827693
0.903856
0.826656
0.756998
0.756998
0.826656
0.756050
0.692342
0.692342
0.756050
0.691475
0.633208
0.633208
0.691475
0.632415
0.579124
0.579124
0.632415
0.578399
0.529660
0.529661
0.578399
0.528997
0.484422
0.484420
0.528998
0.483816
0.443044
0.443039
0.483813
0.442486
0.405199
0.405219
0.442474
0.404682
0.370624
0.370684
0.404722
0.370184
0.339022
0.338865
0.370311
0.338685
0.309806
0.309177
0.338439
0.309342
0.282682
0.282944
0.308257
0.281770
0.259275
0.263229
0.281889
0.258499
0.241756
0.247391
0.263938
0.242795
0.225964
0.220910
0.251086
0.229395
0.198609
0.168798
0.225192
0.202007
0.149196
0.096642
0.169393
0.149237
0.085447
0.031176
0.092516
0.081785
0.029914
-0.004748
0.025726
0.025432
-0.000570
-0.011506
-0.007882
-0.003157
-0.007621
-0.005430
-0.011855
-0.008051
-0.004119
-0.000144
-0.004701
-0.003671
-0.000447
0.001053
0.000319
-0.000116
0.000592
0.000437
0.001087
0.000640
0.000306
-0.000036
0.000352
0.000260
0.000006
-0.000084
-0.000071
1.412443
1.293423
1.293423
1.412443
1.291804
1.182950
1.182950
1.291804
1.181469
1.081912
1.081912
1.181469
1.080557
0.989504
0.989504
1.080557
0.988265
0.904989
0.904989
0.988265
0.903856
0.827693
0.827693
0.903856
0.826656
0.756998
0.756998
0.826656
0.756050
0.692342
0.692342
0.756050
0.691475
0.633208
0.633208
0.691475
0.632415
0.579124
0.579125
0.632415
0.578399
0.529661
0.529660
0.578400
0.528998
0.484420
0.484415
0.528996
0.483811
0.443039
0.443054
0.483798
0.442474
0.405227
0.405292
0.442504
0.404739
0.370682
0.370556
0.404877
0.370311
0.338792
0.338132
0.370119
0.338314
0.309131
0.309248
0.337167
0.308156
0.283329
0.287399
0.308044
0.282421
0.263989
0.270310
0.288059
0.265041
0.247013
0.242087
0.274366
0.250805
0.217675
0.185347
0.246938
0.221524
0.163707
0.105744
0.186075
0.163790
0.093397
0.033427
0.101113
0.089293
0.032175
-0.005752
0.027343
0.027187
-0.001022
-0.012566
-0.009163
-0.003832
-0.008306
-0.005638
-0.012866
-0.008717
-0.004288
0.000015
-0.004811
-0.003777
-0.000365
0.001142
0.000501
-0.000017
0.000646
0.000426
0.001159
0.000686
0.000302
-0.000056
0.000332
0.000250
-0.000005
-0.000086
-0.000090
-0.000029
-0.000048
-0.000014
-0.000079
1.412443
1.293423
1.293423
1.412443
1.291804
1.182950
1.182950
1.291804
1.181469
1.081912
1.081912
1.181469
1.080557
0.989504
0.989504
1.080557
0.988265
0.904989
0.904989
0.988265
0.903856
0.827693
0.827693
0.903856
0.826656
0.756998
0.756998
0.826656
0.756050
0.692342
0.692342
0.756050
0.691475
0.633208
0.633208
0.691474
0.632415
0.579125
0.579124
0.632415
0.578400
0.529660
0.529655
0.578399
0.528995
0.484414
0.484424
0.528982
0.483797
0.443062
0.443129
0.483816
0.442520
0.405294
0.405204
0.442665
0.404885
0.370485
0.369808
0.404753
0.369995
0.338065
0.338017
0.368802
0.337030
0.309627
0.313776
0.336650
0.308571
0.288249
0.295312
0.314360
0.289300
0.269997
0.265300
0.299758
0.274185
0.238585
0.203563
0.270802
0.242949
0.179663
0.115711
0.204453
0.179798
0.102085
0.035787
0.110508
0.097480
0.034567
-0.006922
0.028988
0.029015
-0.001563
-0.013704
-0.010629
-0.004611
-0.009037
-0.005821
-0.013937
-0.009420
-0.004442
0.000201
-0.004885
-0.003863
-0.000267
0.001229
0.000706
0.000096
0.000700
0.000407
0.001227
0.000729
0.000294
-0.000078
0.000304
0.000237
-0.000018
-0.000086
-0.000109
-0.000041
-0.000049
-0.000010
-0.000078
-0.000046
-0.000010
0.000010
-0.000003
1.412443
1.293423
1.293423
1.412443
1.291804
1.182950
1.182950
1.291804
1.181469
1.081912
1.081912
1.181469
1.080557
0.989504
0.989504
1.080557
0.988265
0.904989
0.904989
0.988265
0.903856
0.827693
0.827693
0.903856
0.826656
0.756998
0.756998
0.826656
0.756050
0.692342
0.692342
0.756050
0.691475
0.633208
0.633208
0.691475
0.632416
0.579124
0.579120
0.632416
0.578399
0.529654
0.529659
0.578387
0.528981
0.484431
0.484496
0.528989
0.483831
0.443135
0.443083
0.483975
0.442680
0.405137
0.404457
0.442617
0.404635
0.369718
0.369489
0.403420
0.368627
0.338384
0.342562
0.367944
0.337160
0.314721
0.322580
0.343038
0.315748
0.295087
0.290743
0.327444
0.299708
0.261516
0.223625
0.296990
0.266473
0.197213
0.126628
0.224711
0.197416
0.111580
0.038247
0.120774
0.106406
0.037089
-0.008283
0.030644
0.030906
-0.002207
-0.014920
-0.012303
-0.005507
-0.009814
-0.005969
-0.015064
-0.010155
-0.004575
0.000415
-0.004914
-0.003921
-0.000151
0.001312
0.000935
0.000224
0.000752
0.000381
0.001286
0.000768
0.000282
-0.000100
0.000270
0.000219
-0.000031
-0.000086
-0.000128
-0.000052
-0.000049
-0.000006
-0.000075
-0.000045
-0.000008
0.000010
0.000001
-0.000004
0.000005
0.000003
0.000010
1.412443
1.293423
1.293423
1.412443
1.291804
1.182950
1.182950
1.291804
1.181469
1.081912
1.081912
1.181469
1.080557
0.989504
0.989504
1.080557
0.988265
0.904989
0.904989
0.988265
0.903856
0.827693
0.827693
0.903856
0.826656
0.756998
0.756998
0.826656
0.756050
0.692342
0.692342
0.756050
0.691475
0.633208
0.633204
0.691476
0.632415
0.579119
0.579119
0.632405
0.578384
0.529664
0.529724
0.578383
0.529001
0.484505
0.484492
0.529138
0.483998
0.443022
0.442358
0.484006
0.442508
0.404346
0.403921
0.441299
0.403205
0.369832
0.373979
0.402188
0.368424
0.343604
0.352308
0.374306
0.344581
0.322469
0.318627
0.357616
0.327562
0.286666
0.245730
0.325730
0.292303
0.216526
0.138588
0.247055
0.216813
0.121956
0.040796
0.131990
0.116135
0.039739
-0.009863
0.032285
0.032849
-0.002970
-0.016213
-0.014213
-0.006535
-0.010634
-0.006072
-0.016241
-0.010918
-0.004680
0.000660
-0.004887
-0.003946
-0.000018
0.001389
0.001189
0.000366
0.000800
0.000346
0.001336
0.000801
0.000264
-0.000122
0.000228
0.000197
-0.000043
-0.000083
-0.000146
-0.000063
-0.000048
-0.000002
-0.000070
-0.000043
-0.000005
0.000011
0.000005
-0.000001
0.000005
0.000002
0.000010
0.000005
0.000002
-0.000001
0.000001
1.412443
1.293423
1.293423
1.412443
1.291804
1.182950
1.182950
1.291804
1.181469
1.081912
1.081912
1.181469
1.080557
0.989504
0.989504
1.080557
0.988265
0.904989
0.904989
0.988265
0.903856
0.827693
0.827693
0.903856
0.826656
0.756998
0.756998
0.826656
0.756050
0.692342
0.692340
0.756051
0.691476
0.633203
0.633200
0.691469
0.632403
0.579123
0.579175
0.632393
0.578392
0.529736
0.529759
0.578515
0.529167
0.484440
0.483812
0.529247
0.483912
0.442226
0.441598
0.482744
0.441045
0.404230
0.408270
0.439670
0.402620
0.375117
0.384705
0.408400
0.376010
0.352340
0.349183
0.390480
0.357947
0.314251
0.270100
0.357270
0.320670
0.237788
0.151695
0.271717
0.238181
0.133295
0.043416
0.144245
0.126736
0.042507
-0.011694
0.033880
0.034825
-0.003868
-0.017579
-0.016390
-0.007710
-0.011494
-0.006116
-0.017459
-0.011702
-0.004752
0.000935
-0.004792
-0.003931
0.000132
0.001455
0.001466
0.000521
0.000843
0.000302
0.001372
0.000827
0.000242
-0.000143
0.000178
0.000170
-0.000056
-0.000078
-0.000161
-0.000072
-0.000046
0.000003
-0.000063
-0.000040
-0.000003
0.000010
0.000008
0.000001
0.000005
0.000001
0.000009
0.000005
0.000001
-0.000001
0.000001
0.000001
-0.000000
-0.000000
-0.000001
1.412443
1.293423
1.293423
1.412443
1.291804
1.182950
1.182950
1.291804
1.181469
1.081912
1.081912
1.181469
1.080557
0.989504
0.989504
1.080557
0.988265
0.904989
0.904989
0.988265
0.903856
0.827693
0.827693
0.903856
0.826656
0.756998
0.756997
0.826657
0.756051
0.692339
0.692334
0.756047
0.691466
0.633203
0.633244
0.691451
0.632398
0.579189
0.579242
0.632500
0.578548
0.529718
0.529150
0.578695
0.529172
0.483663
0.482834
0.528086
0.482454
0.441861
0.445705
0.480707
0.440034
0.409502
0.419995
0.445579
0.410266
0.384917
0.382662
0.426255
0.391079
0.344505
0.296985
0.391882
0.351829
0.261209
0.166063
0.298960
0.261735
0.145687
0.046081
0.157635
0.138281
0.045384
-0.013815
0.035385
0.036813
-0.004922
-0.019012
-0.018867
-0.009050
-0.012389
-0.006088
-0.018704
-0.012498
-0.004779
0.001240
-0.004615
-0.003867
0.000300
0.001508
0.001762
0.000689
0.000878
0.000249
0.001390
0.000843
0.000214
-0.000162
0.000122
0.000140
-0.000068
-0.000072
-0.000174
-0.000081
-0.000043
0.000007
-0.000055
-0.000036
-0.000000
0.000010
0.000012
0.000003
0.000005
0.000001
0.000009
0.000005
0.000001
-0.000001
0.000000
0.000000
-0.000000
-0.000000
-0.000001
-0.000000
-0.000000
0.000000
-0.000000
1.412443
1.293423
1.293423
1.412443
1.291804
1.182950
1.182950
1.291804
1.181469
1.081912
1.081912
1.181469
1.080557
0.989504
0.989504
1.080557
0.988265
0.904989
0.904989
0.988265
0.903856
0.827693
0.827692
0.903857
0.826657
0.756996
0.756991
0.826656
0.756045
0.692335
0.692363
0.756028
0.691453
0.633257
0.633335