# vtk DataFile Version 3.0 
Date: 3/9/2016   Time: 10:1
ASCII 
DATASET UNSTRUCTURED_GRID 
 
POINTS 64 float 
0.000000 0.000000 0.000000 
0.250000 0.000000 0.000000 
0.250000 0.250000 0.000000 
0.000000 0.250000 0.000000 
0.250000 0.000000 0.000000 
0.500000 0.000000 0.000000 
0.500000 0.250000 0.000000 
0.250000 0.250000 0.000000 
0.500000 0.000000 0.000000 
0.750000 0.000000 0.000000 
0.750000 0.250000 0.000000 
0.500000 0.250000 0.000000 
0.750000 0.000000 0.000000 
1.000000 0.000000 0.000000 
1.000000 0.250000 0.000000 
0.750000 0.250000 0.000000 
0.000000 0.250000 0.000000 
0.250000 0.250000 0.000000 
0.250000 0.500000 0.000000 
0.000000 0.500000 0.000000 
0.250000 0.250000 0.000000 
0.500000 0.250000 0.000000 
0.500000 0.500000 0.000000 
0.250000 0.500000 0.000000 
0.500000 0.250000 0.000000 
0.750000 0.250000 0.000000 
0.750000 0.500000 0.000000 
0.500000 0.500000 0.000000 
0.750000 0.250000 0.000000 
1.000000 0.250000 0.000000 
1.000000 0.500000 0.000000 
0.750000 0.500000 0.000000 
0.000000 0.500000 0.000000 
0.250000 0.500000 0.000000 
0.250000 0.750000 0.000000 
0.000000 0.750000 0.000000 
0.250000 0.500000 0.000000 
0.500000 0.500000 0.000000 
0.500000 0.750000 0.000000 
0.250000 0.750000 0.000000 
0.500000 0.500000 0.000000 
0.750000 0.500000 0.000000 
0.750000 0.750000 0.000000 
0.500000 0.750000 0.000000 
0.750000 0.500000 0.000000 
1.000000 0.500000 0.000000 
1.000000 0.750000 0.000000 
0.750000 0.750000 0.000000 
0.000000 0.750000 0.000000 
0.250000 0.750000 0.000000 
0.250000 1.000000 0.000000 
0.000000 1.000000 0.000000 
0.250000 0.750000 0.000000 
0.500000 0.750000 0.000000 
0.500000 1.000000 0.000000 
0.250000 1.000000 0.000000 
0.500000 0.750000 0.000000 
0.750000 0.750000 0.000000 
0.750000 1.000000 0.000000 
0.500000 1.000000 0.000000 
0.750000 0.750000 0.000000 
1.000000 0.750000 0.000000 
1.000000 1.000000 0.000000 
0.750000 1.000000 0.000000 
CELLS 16 80 
 4 0 1 2 3  
 4 4 5 6 7  
 4 8 9 10 11  
 4 12 13 14 15  
 4 16 17 18 19  
 4 20 21 22 23  
 4 24 25 26 27  
 4 28 29 30 31  
 4 32 33 34 35  
 4 36 37 38 39  
 4 40 41 42 43  
 4 44 45 46 47  
 4 48 49 50 51  
 4 52 53 54 55  
 4 56 57 58 59  
 4 60 61 62 63  
 
CELL_TYPES 16
7
7
7
7
7
7
7
7
7
7
7
7
7
7
7
7
CELL_DATA 16
FIELD FieldData 1
material 1 16 int
1
1
1
1
1
1
1
1
1
1
1
1
1
1
1
1
POINT_DATA 64 SCALARS flux_g1 double 
LOOKUP_TABLE   default 
0.571213
-0.136917
-0.136830
0.571325
-0.055291
0.013255
0.013236
-0.055296
0.005351
-0.001283
-0.001280
0.005353
-0.000518
0.000124
0.000124
-0.000518
0.571538
-0.136776
-0.137507
0.570245
-0.055363
0.013238
0.013376
-0.055308
0.005369
-0.001282
-0.001303
0.005358
-0.000521
0.000124
0.000127
-0.000519
0.567771
-0.137685
-0.132713
0.583529
-0.054730
0.013316
0.012489
-0.055600
0.005247
-0.001282
-0.001175
0.005323
-0.000501
0.000123
0.000110
-0.000511
0.614207
-0.137055
-0.147323
0.408199
-0.060538
0.013473
0.015107
-0.042497
0.006013
-0.001336
-0.001536
0.004356
-0.000600
0.000133
0.000155
-0.000443
 
