# vtk DataFile Version 3.0 
Date: 3/9/2016   Time: 10:2
ASCII 
DATASET UNSTRUCTURED_GRID 
 
POINTS 64 float 
0.000000 0.000000 0.000000 
0.250000 0.000000 0.000000 
0.250000 0.250000 0.000000 
0.000000 0.250000 0.000000 
0.250000 0.000000 0.000000 
0.500000 0.000000 0.000000 
0.500000 0.250000 0.000000 
0.250000 0.250000 0.000000 
0.500000 0.000000 0.000000 
0.750000 0.000000 0.000000 
0.750000 0.250000 0.000000 
0.500000 0.250000 0.000000 
0.750000 0.000000 0.000000 
1.000000 0.000000 0.000000 
1.000000 0.250000 0.000000 
0.750000 0.250000 0.000000 
0.000000 0.250000 0.000000 
0.250000 0.250000 0.000000 
0.250000 0.500000 0.000000 
0.000000 0.500000 0.000000 
0.250000 0.250000 0.000000 
0.500000 0.250000 0.000000 
0.500000 0.500000 0.000000 
0.250000 0.500000 0.000000 
0.500000 0.250000 0.000000 
0.750000 0.250000 0.000000 
0.750000 0.500000 0.000000 
0.500000 0.500000 0.000000 
0.750000 0.250000 0.000000 
1.000000 0.250000 0.000000 
1.000000 0.500000 0.000000 
0.750000 0.500000 0.000000 
0.000000 0.500000 0.000000 
0.250000 0.500000 0.000000 
0.250000 0.750000 0.000000 
0.000000 0.750000 0.000000 
0.250000 0.500000 0.000000 
0.500000 0.500000 0.000000 
0.500000 0.750000 0.000000 
0.250000 0.750000 0.000000 
0.500000 0.500000 0.000000 
0.750000 0.500000 0.000000 
0.750000 0.750000 0.000000 
0.500000 0.750000 0.000000 
0.750000 0.500000 0.000000 
1.000000 0.500000 0.000000 
1.000000 0.750000 0.000000 
0.750000 0.750000 0.000000 
0.000000 0.750000 0.000000 
0.250000 0.750000 0.000000 
0.250000 1.000000 0.000000 
0.000000 1.000000 0.000000 
0.250000 0.750000 0.000000 
0.500000 0.750000 0.000000 
0.500000 1.000000 0.000000 
0.250000 1.000000 0.000000 
0.500000 0.750000 0.000000 
0.750000 0.750000 0.000000 
0.750000 1.000000 0.000000 
0.500000 1.000000 0.000000 
0.750000 0.750000 0.000000 
1.000000 0.750000 0.000000 
1.000000 1.000000 0.000000 
0.750000 1.000000 0.000000 
CELLS 16 80 
 4 0 1 2 3  
 4 4 5 6 7  
 4 8 9 10 11  
 4 12 13 14 15  
 4 16 17 18 19  
 4 20 21 22 23  
 4 24 25 26 27  
 4 28 29 30 31  
 4 32 33 34 35  
 4 36 37 38 39  
 4 40 41 42 43  
 4 44 45 46 47  
 4 48 49 50 51  
 4 52 53 54 55  
 4 56 57 58 59  
 4 60 61 62 63  
 
CELL_TYPES 16
7
7
7
7
7
7
7
7
7
7
7
7
7
7
7
7
CELL_DATA 16
FIELD FieldData 1
material 1 16 int
1
1
1
1
1
1
1
1
1
1
1
1
1
1
1
1
POINT_DATA 64 SCALARS flux_g1 double 
LOOKUP_TABLE   default 
0.076490
-0.035885
-0.035885
0.076490
-0.001941
0.000911
0.000911
-0.001941
0.000049
-0.000023
-0.000023
0.000049
-0.000001
0.000001
0.000001
-0.000001
0.076491
-0.035885
-0.035886
0.076489
-0.001941
0.000911
0.000911
-0.001941
0.000049
-0.000023
-0.000023
0.000049
-0.000001
0.000001
0.000001
-0.000001
0.076469
-0.035890
-0.035884
0.076545
-0.001941
0.000911
0.000910
-0.001942
0.000049
-0.000023
-0.000023
0.000049
-0.000001
0.000001
0.000001
-0.000001
0.077703
-0.036064
-0.034797
0.073177
-0.001972
0.000911
0.000864
-0.001808
0.000050
-0.000023
-0.000022
0.000045
-0.000001
0.000001
0.000001
-0.000001
 
