# vtk DataFile Version 3.0 
Date: 3/9/2016   Time: 10:3
ASCII 
DATASET UNSTRUCTURED_GRID 
 
POINTS 256 float 
0.000000 0.000000 0.000000 
0.125000 0.000000 0.000000 
0.125000 0.125000 0.000000 
0.000000 0.125000 0.000000 
0.125000 0.000000 0.000000 
0.250000 0.000000 0.000000 
0.250000 0.125000 0.000000 
0.125000 0.125000 0.000000 
0.250000 0.000000 0.000000 
0.375000 0.000000 0.000000 
0.375000 0.125000 0.000000 
0.250000 0.125000 0.000000 
0.375000 0.000000 0.000000 
0.500000 0.000000 0.000000 
0.500000 0.125000 0.000000 
0.375000 0.125000 0.000000 
0.500000 0.000000 0.000000 
0.625000 0.000000 0.000000 
0.625000 0.125000 0.000000 
0.500000 0.125000 0.000000 
0.625000 0.000000 0.000000 
0.750000 0.000000 0.000000 
0.750000 0.125000 0.000000 
0.625000 0.125000 0.000000 
0.750000 0.000000 0.000000 
0.875000 0.000000 0.000000 
0.875000 0.125000 0.000000 
0.750000 0.125000 0.000000 
0.875000 0.000000 0.000000 
1.000000 0.000000 0.000000 
1.000000 0.125000 0.000000 
0.875000 0.125000 0.000000 
0.000000 0.125000 0.000000 
0.125000 0.125000 0.000000 
0.125000 0.250000 0.000000 
0.000000 0.250000 0.000000 
0.125000 0.125000 0.000000 
0.250000 0.125000 0.000000 
0.250000 0.250000 0.000000 
0.125000 0.250000 0.000000 
0.250000 0.125000 0.000000 
0.375000 0.125000 0.000000 
0.375000 0.250000 0.000000 
0.250000 0.250000 0.000000 
0.375000 0.125000 0.000000 
0.500000 0.125000 0.000000 
0.500000 0.250000 0.000000 
0.375000 0.250000 0.000000 
0.500000 0.125000 0.000000 
0.625000 0.125000 0.000000 
0.625000 0.250000 0.000000 
0.500000 0.250000 0.000000 
0.625000 0.125000 0.000000 
0.750000 0.125000 0.000000 
0.750000 0.250000 0.000000 
0.625000 0.250000 0.000000 
0.750000 0.125000 0.000000 
0.875000 0.125000 0.000000 
0.875000 0.250000 0.000000 
0.750000 0.250000 0.000000 
0.875000 0.125000 0.000000 
1.000000 0.125000 0.000000 
1.000000 0.250000 0.000000 
0.875000 0.250000 0.000000 
0.000000 0.250000 0.000000 
0.125000 0.250000 0.000000 
0.125000 0.375000 0.000000 
0.000000 0.375000 0.000000 
0.125000 0.250000 0.000000 
0.250000 0.250000 0.000000 
0.250000 0.375000 0.000000 
0.125000 0.375000 0.000000 
0.250000 0.250000 0.000000 
0.375000 0.250000 0.000000 
0.375000 0.375000 0.000000 
0.250000 0.375000 0.000000 
0.375000 0.250000 0.000000 
0.500000 0.250000 0.000000 
0.500000 0.375000 0.000000 
0.375000 0.375000 0.000000 
0.500000 0.250000 0.000000 
0.625000 0.250000 0.000000 
0.625000 0.375000 0.000000 
0.500000 0.375000 0.000000 
0.625000 0.250000 0.000000 
0.750000 0.250000 0.000000 
0.750000 0.375000 0.000000 
0.625000 0.375000 0.000000 
0.750000 0.250000 0.000000 
0.875000 0.250000 0.000000 
0.875000 0.375000 0.000000 
0.750000 0.375000 0.000000 
0.875000 0.250000 0.000000 
1.000000 0.250000 0.000000 
1.000000 0.375000 0.000000 
0.875000 0.375000 0.000000 
0.000000 0.375000 0.000000 
0.125000 0.375000 0.000000 
0.125000 0.500000 0.000000 
0.000000 0.500000 0.000000 
0.125000 0.375000 0.000000 
0.250000 0.375000 0.000000 
0.250000 0.500000 0.000000 
0.125000 0.500000 0.000000 
0.250000 0.375000 0.000000 
0.375000 0.375000 0.000000 
0.375000 0.500000 0.000000 
0.250000 0.500000 0.000000 
0.375000 0.375000 0.000000 
0.500000 0.375000 0.000000 
0.500000 0.500000 0.000000 
0.375000 0.500000 0.000000 
0.500000 0.375000 0.000000 
0.625000 0.375000 0.000000 
0.625000 0.500000 0.000000 
0.500000 0.500000 0.000000 
0.625000 0.375000 0.000000 
0.750000 0.375000 0.000000 
0.750000 0.500000 0.000000 
0.625000 0.500000 0.000000 
0.750000 0.375000 0.000000 
0.875000 0.375000 0.000000 
0.875000 0.500000 0.000000 
0.750000 0.500000 0.000000 
0.875000 0.375000 0.000000 
1.000000 0.375000 0.000000 
1.000000 0.500000 0.000000 
0.875000 0.500000 0.000000 
0.000000 0.500000 0.000000 
0.125000 0.500000 0.000000 
0.125000 0.625000 0.000000 
0.000000 0.625000 0.000000 
0.125000 0.500000 0.000000 
0.250000 0.500000 0.000000 
0.250000 0.625000 0.000000 
0.125000 0.625000 0.000000 
0.250000 0.500000 0.000000 
0.375000 0.500000 0.000000 
0.375000 0.625000 0.000000 
0.250000 0.625000 0.000000 
0.375000 0.500000 0.000000 
0.500000 0.500000 0.000000 
0.500000 0.625000 0.000000 
0.375000 0.625000 0.000000 
0.500000 0.500000 0.000000 
0.625000 0.500000 0.000000 
0.625000 0.625000 0.000000 
0.500000 0.625000 0.000000 
0.625000 0.500000 0.000000 
0.750000 0.500000 0.000000 
0.750000 0.625000 0.000000 
0.625000 0.625000 0.000000 
0.750000 0.500000 0.000000 
0.875000 0.500000 0.000000 
0.875000 0.625000 0.000000 
0.750000 0.625000 0.000000 
0.875000 0.500000 0.000000 
1.000000 0.500000 0.000000 
1.000000 0.625000 0.000000 
0.875000 0.625000 0.000000 
0.000000 0.625000 0.000000 
0.125000 0.625000 0.000000 
0.125000 0.750000 0.000000 
0.000000 0.750000 0.000000 
0.125000 0.625000 0.000000 
0.250000 0.625000 0.000000 
0.250000 0.750000 0.000000 
0.125000 0.750000 0.000000 
0.250000 0.625000 0.000000 
0.375000 0.625000 0.000000 
0.375000 0.750000 0.000000 
0.250000 0.750000 0.000000 
0.375000 0.625000 0.000000 
0.500000 0.625000 0.000000 
0.500000 0.750000 0.000000 
0.375000 0.750000 0.000000 
0.500000 0.625000 0.000000 
0.625000 0.625000 0.000000 
0.625000 0.750000 0.000000 
0.500000 0.750000 0.000000 
0.625000 0.625000 0.000000 
0.750000 0.625000 0.000000 
0.750000 0.750000 0.000000 
0.625000 0.750000 0.000000 
0.750000 0.625000 0.000000 
0.875000 0.625000 0.000000 
0.875000 0.750000 0.000000 
0.750000 0.750000 0.000000 
0.875000 0.625000 0.000000 
1.000000 0.625000 0.000000 
1.000000 0.750000 0.000000 
0.875000 0.750000 0.000000 
0.000000 0.750000 0.000000 
0.125000 0.750000 0.000000 
0.125000 0.875000 0.000000 
0.000000 0.875000 0.000000 
0.125000 0.750000 0.000000 
0.250000 0.750000 0.000000 
0.250000 0.875000 0.000000 
0.125000 0.875000 0.000000 
0.250000 0.750000 0.000000 
0.375000 0.750000 0.000000 
0.375000 0.875000 0.000000 
0.250000 0.875000 0.000000 
0.375000 0.750000 0.000000 
0.500000 0.750000 0.000000 
0.500000 0.875000 0.000000 
0.375000 0.875000 0.000000 
0.500000 0.750000 0.000000 
0.625000 0.750000 0.000000 
0.625000 0.875000 0.000000 
0.500000 0.875000 0.000000 
0.625000 0.750000 0.000000 
0.750000 0.750000 0.000000 
0.750000 0.875000 0.000000 
0.625000 0.875000 0.000000 
0.750000 0.750000 0.000000 
0.875000 0.750000 0.000000 
0.875000 0.875000 0.000000 
0.750000 0.875000 0.000000 
0.875000 0.750000 0.000000 
1.000000 0.750000 0.000000 
1.000000 0.875000 0.000000 
0.875000 0.875000 0.000000 
0.000000 0.875000 0.000000 
0.125000 0.875000 0.000000 
0.125000 1.000000 0.000000 
0.000000 1.000000 0.000000 
0.125000 0.875000 0.000000 
0.250000 0.875000 0.000000 
0.250000 1.000000 0.000000 
0.125000 1.000000 0.000000 
0.250000 0.875000 0.000000 
0.375000 0.875000 0.000000 
0.375000 1.000000 0.000000 
0.250000 1.000000 0.000000 
0.375000 0.875000 0.000000 
0.500000 0.875000 0.000000 
0.500000 1.000000 0.000000 
0.375000 1.000000 0.000000 
0.500000 0.875000 0.000000 
0.625000 0.875000 0.000000 
0.625000 1.000000 0.000000 
0.500000 1.000000 0.000000 
0.625000 0.875000 0.000000 
0.750000 0.875000 0.000000 
0.750000 1.000000 0.000000 
0.625000 1.000000 0.000000 
0.750000 0.875000 0.000000 
0.875000 0.875000 0.000000 
0.875000 1.000000 0.000000 
0.750000 1.000000 0.000000 
0.875000 0.875000 0.000000 
1.000000 0.875000 0.000000 
1.000000 1.000000 0.000000 
0.875000 1.000000 0.000000 
CELLS 64 320 
 4 0 1 2 3  
 4 4 5 6 7  
 4 8 9 10 11  
 4 12 13 14 15  
 4 16 17 18 19  
 4 20 21 22 23  
 4 24 25 26 27  
 4 28 29 30 31  
 4 32 33 34 35  
 4 36 37 38 39  
 4 40 41 42 43  
 4 44 45 46 47  
 4 48 49 50 51  
 4 52 53 54 55  
 4 56 57 58 59  
 4 60 61 62 63  
 4 64 65 66 67  
 4 68 69 70 71  
 4 72 73 74 75  
 4 76 77 78 79  
 4 80 81 82 83  
 4 84 85 86 87  
 4 88 89 90 91  
 4 92 93 94 95  
 4 96 97 98 99  
 4 100 101 102 103  
 4 104 105 106 107  
 4 108 109 110 111  
 4 112 113 114 115  
 4 116 117 118 119  
 4 120 121 122 123  
 4 124 125 126 127  
 4 128 129 130 131  
 4 132 133 134 135  
 4 136 137 138 139  
 4 140 141 142 143  
 4 144 145 146 147  
 4 148 149 150 151  
 4 152 153 154 155  
 4 156 157 158 159  
 4 160 161 162 163  
 4 164 165 166 167  
 4 168 169 170 171  
 4 172 173 174 175  
 4 176 177 178 179  
 4 180 181 182 183  
 4 184 185 186 187  
 4 188 189 190 191  
 4 192 193 194 195  
 4 196 197 198 199  
 4 200 201 202 203  
 4 204 205 206 207  
 4 208 209 210 211  
 4 212 213 214 215  
 4 216 217 218 219  
 4 220 221 222 223  
 4 224 225 226 227  
 4 228 229 230 231  
 4 232 233 234 235  
 4 236 237 238 239  
 4 240 241 242 243  
 4 244 245 246 247  
 4 248 249 250 251  
 4 252 253 254 255  
 
CELL_TYPES 64
7
7
7
7
7
7
7
7
7
7
7
7
7
7
7
7
7
7
7
7
7
7
7
7
7
7
7
7
7
7
7
7
7
7
7
7
7
7
7
7
7
7
7
7
7
7
7
7
7
7
7
7
7
7
7
7
7
7
7
7
7
7
7
7
CELL_DATA 64
FIELD FieldData 1
material 1 64 int
1
1
1
1
1
1
1
1
1
1
1
1
1
1
1
1
1
1
1
1
1
1
1
1
1
1
1
1
1
1
1
1
1
1
1
1
1
1
1
1
1
1
1
1
1
1
1
1
1
1
1
1
1
1
1
1
1
1
1
1
1
1
1
1
POINT_DATA 256 SCALARS flux_g1 double 
LOOKUP_TABLE   default 
0.868296
-0.048902
-0.048902
0.868296
-0.030025
0.001691
0.001691
-0.030025
0.001038
-0.000058
-0.000059
0.001038
-0.000036
0.000002
0.000002
-0.000036
0.000001
-0.000000
-0.000000
0.000001
-0.000000
-0.000000
0.000000
-0.000000
-0.000000
0.000000
0.000000
0.000000
0.000000
-0.000000
-0.000000
-0.000000
0.868296
-0.048902
-0.048901
0.868295
-0.030025
0.001691
0.001690
-0.030024
0.001038
-0.000059
-0.000058
0.001038
-0.000036
0.000002
0.000002
-0.000035
0.000001
-0.000000
-0.000000
0.000001
-0.000000
0.000000
0.000000
0.000000
0.000000
-0.000000
-0.000000
-0.000000
-0.000000
0.000000
0.000000
-0.000000
0.868295
-0.048901
-0.048906
0.868300
-0.030024
0.001690
0.001695
-0.030031
0.001037
-0.000057
-0.000061
0.001044
-0.000035
0.000002
0.000003
-0.000039
0.000001
0.000000
0.000000
0.000002
0.000000
-0.000000
-0.000000
-0.000000
-0.000000
0.000000
0.000000
-0.000000
0.000000
0.000000
-0.000000
0.000000
0.868304
-0.048912
-0.048870
0.868255
-0.030034
0.001702
0.001664
-0.029969
0.001046
-0.000065
-0.000051
0.000998
-0.000041
0.000004
0.000003
-0.000019
0.000003
-0.000000
-0.000001
-0.000002
-0.000001
0.000000
0.000000
-0.000000
0.000000
0.000000
-0.000000
0.000000
-0.000000
-0.000000
0.000000
-0.000000
0.868207
-0.048814
-0.049126
0.868709
-0.029933
0.001617
0.001799
-0.030484
0.000972
-0.000028
-0.000047
0.001273
-0.000005
-0.000004
-0.000019
-0.000084
-0.000007
0.000000
0.000006
-0.000000
0.000001
0.000000
-0.000001
0.000002
-0.000000
-0.000000
0.000000
-0.000001
-0.000000
0.000000
-0.000000
0.000000
0.869206
-0.049614
-0.047671
0.864236
-0.030849
0.002109
0.001770
-0.026773
0.001478
-0.000152
-0.000385
0.000219
-0.000160
0.000003
0.000093
-0.000078
0.000017
0.000003
-0.000016
0.000036
-0.000001
-0.000001
0.000002
-0.000008
-0.000000
0.000000
-0.000000
0.000001
0.000000
-0.000000
0.000000
-0.000000
0.859116
-0.043706
-0.049903
0.907159
-0.023662
0.000122
-0.003970
-0.045804
-0.000973
-0.000045
0.001210
-0.000086
0.000182
0.000043
-0.000189
0.000459
-0.000006
-0.000011
0.000024
-0.000086
-0.000002
0.000002
-0.000003
0.000012
0.000001
-0.000000
0.000000
-0.000001
-0.000000
0.000000
-0.000000
0.000000
0.958743
-0.078646
-0.161986
0.507783
-0.066605
0.001918
0.017736
-0.062591
0.003822
0.000359
-0.001876
0.007209
-0.000113
-0.000086
0.000193
-0.000792
-0.000014
0.000013
-0.000019
0.000084
0.000004
-0.000002
0.000002
-0.000009
-0.000001
0.000000
-0.000000
0.000001
0.000000
-0.000000
0.000000
-0.000000
 
