# vtk DataFile Version 3.0 
Date: 3/9/2016   Time: 10:2
ASCII 
DATASET UNSTRUCTURED_GRID 
 
POINTS 4096 float 
0.000000 0.000000 0.000000 
0.031250 0.000000 0.000000 
0.031250 0.031250 0.000000 
0.000000 0.031250 0.000000 
0.031250 0.000000 0.000000 
0.062500 0.000000 0.000000 
0.062500 0.031250 0.000000 
0.031250 0.031250 0.000000 
0.062500 0.000000 0.000000 
0.093750 0.000000 0.000000 
0.093750 0.031250 0.000000 
0.062500 0.031250 0.000000 
0.093750 0.000000 0.000000 
0.125000 0.000000 0.000000 
0.125000 0.031250 0.000000 
0.093750 0.031250 0.000000 
0.125000 0.000000 0.000000 
0.156250 0.000000 0.000000 
0.156250 0.031250 0.000000 
0.125000 0.031250 0.000000 
0.156250 0.000000 0.000000 
0.187500 0.000000 0.000000 
0.187500 0.031250 0.000000 
0.156250 0.031250 0.000000 
0.187500 0.000000 0.000000 
0.218750 0.000000 0.000000 
0.218750 0.031250 0.000000 
0.187500 0.031250 0.000000 
0.218750 0.000000 0.000000 
0.250000 0.000000 0.000000 
0.250000 0.031250 0.000000 
0.218750 0.031250 0.000000 
0.250000 0.000000 0.000000 
0.281250 0.000000 0.000000 
0.281250 0.031250 0.000000 
0.250000 0.031250 0.000000 
0.281250 0.000000 0.000000 
0.312500 0.000000 0.000000 
0.312500 0.031250 0.000000 
0.281250 0.031250 0.000000 
0.312500 0.000000 0.000000 
0.343750 0.000000 0.000000 
0.343750 0.031250 0.000000 
0.312500 0.031250 0.000000 
0.343750 0.000000 0.000000 
0.375000 0.000000 0.000000 
0.375000 0.031250 0.000000 
0.343750 0.031250 0.000000 
0.375000 0.000000 0.000000 
0.406250 0.000000 0.000000 
0.406250 0.031250 0.000000 
0.375000 0.031250 0.000000 
0.406250 0.000000 0.000000 
0.437500 0.000000 0.000000 
0.437500 0.031250 0.000000 
0.406250 0.031250 0.000000 
0.437500 0.000000 0.000000 
0.468750 0.000000 0.000000 
0.468750 0.031250 0.000000 
0.437500 0.031250 0.000000 
0.468750 0.000000 0.000000 
0.500000 0.000000 0.000000 
0.500000 0.031250 0.000000 
0.468750 0.031250 0.000000 
0.500000 0.000000 0.000000 
0.531250 0.000000 0.000000 
0.531250 0.031250 0.000000 
0.500000 0.031250 0.000000 
0.531250 0.000000 0.000000 
0.562500 0.000000 0.000000 
0.562500 0.031250 0.000000 
0.531250 0.031250 0.000000 
0.562500 0.000000 0.000000 
0.593750 0.000000 0.000000 
0.593750 0.031250 0.000000 
0.562500 0.031250 0.000000 
0.593750 0.000000 0.000000 
0.625000 0.000000 0.000000 
0.625000 0.031250 0.000000 
0.593750 0.031250 0.000000 
0.625000 0.000000 0.000000 
0.656250 0.000000 0.000000 
0.656250 0.031250 0.000000 
0.625000 0.031250 0.000000 
0.656250 0.000000 0.000000 
0.687500 0.000000 0.000000 
0.687500 0.031250 0.000000 
0.656250 0.031250 0.000000 
0.687500 0.000000 0.000000 
0.718750 0.000000 0.000000 
0.718750 0.031250 0.000000 
0.687500 0.031250 0.000000 
0.718750 0.000000 0.000000 
0.750000 0.000000 0.000000 
0.750000 0.031250 0.000000 
0.718750 0.031250 0.000000 
0.750000 0.000000 0.000000 
0.781250 0.000000 0.000000 
0.781250 0.031250 0.000000 
0.750000 0.031250 0.000000 
0.781250 0.000000 0.000000 
0.812500 0.000000 0.000000 
0.812500 0.031250 0.000000 
0.781250 0.031250 0.000000 
0.812500 0.000000 0.000000 
0.843750 0.000000 0.000000 
0.843750 0.031250 0.000000 
0.812500 0.031250 0.000000 
0.843750 0.000000 0.000000 
0.875000 0.000000 0.000000 
0.875000 0.031250 0.000000 
0.843750 0.031250 0.000000 
0.875000 0.000000 0.000000 
0.906250 0.000000 0.000000 
0.906250 0.031250 0.000000 
0.875000 0.031250 0.000000 
0.906250 0.000000 0.000000 
0.937500 0.000000 0.000000 
0.937500 0.031250 0.000000 
0.906250 0.031250 0.000000 
0.937500 0.000000 0.000000 
0.968750 0.000000 0.000000 
0.968750 0.031250 0.000000 
0.937500 0.031250 0.000000 
0.968750 0.000000 0.000000 
1.000000 0.000000 0.000000 
1.000000 0.031250 0.000000 
0.968750 0.031250 0.000000 
0.000000 0.031250 0.000000 
0.031250 0.031250 0.000000 
0.031250 0.062500 0.000000 
0.000000 0.062500 0.000000 
0.031250 0.031250 0.000000 
0.062500 0.031250 0.000000 
0.062500 0.062500 0.000000 
0.031250 0.062500 0.000000 
0.062500 0.031250 0.000000 
0.093750 0.031250 0.000000 
0.093750 0.062500 0.000000 
0.062500 0.062500 0.000000 
0.093750 0.031250 0.000000 
0.125000 0.031250 0.000000 
0.125000 0.062500 0.000000 
0.093750 0.062500 0.000000 
0.125000 0.031250 0.000000 
0.156250 0.031250 0.000000 
0.156250 0.062500 0.000000 
0.125000 0.062500 0.000000 
0.156250 0.031250 0.000000 
0.187500 0.031250 0.000000 
0.187500 0.062500 0.000000 
0.156250 0.062500 0.000000 
0.187500 0.031250 0.000000 
0.218750 0.031250 0.000000 
0.218750 0.062500 0.000000 
0.187500 0.062500 0.000000 
0.218750 0.031250 0.000000 
0.250000 0.031250 0.000000 
0.250000 0.062500 0.000000 
0.218750 0.062500 0.000000 
0.250000 0.031250 0.000000 
0.281250 0.031250 0.000000 
0.281250 0.062500 0.000000 
0.250000 0.062500 0.000000 
0.281250 0.031250 0.000000 
0.312500 0.031250 0.000000 
0.312500 0.062500 0.000000 
0.281250 0.062500 0.000000 
0.312500 0.031250 0.000000 
0.343750 0.031250 0.000000 
0.343750 0.062500 0.000000 
0.312500 0.062500 0.000000 
0.343750 0.031250 0.000000 
0.375000 0.031250 0.000000 
0.375000 0.062500 0.000000 
0.343750 0.062500 0.000000 
0.375000 0.031250 0.000000 
0.406250 0.031250 0.000000 
0.406250 0.062500 0.000000 
0.375000 0.062500 0.000000 
0.406250 0.031250 0.000000 
0.437500 0.031250 0.000000 
0.437500 0.062500 0.000000 
0.406250 0.062500 0.000000 
0.437500 0.031250 0.000000 
0.468750 0.031250 0.000000 
0.468750 0.062500 0.000000 
0.437500 0.062500 0.000000 
0.468750 0.031250 0.000000 
0.500000 0.031250 0.000000 
0.500000 0.062500 0.000000 
0.468750 0.062500 0.000000 
0.500000 0.031250 0.000000 
0.531250 0.031250 0.000000 
0.531250 0.062500 0.000000 
0.500000 0.062500 0.000000 
0.531250 0.031250 0.000000 
0.562500 0.031250 0.000000 
0.562500 0.062500 0.000000 
0.531250 0.062500 0.000000 
0.562500 0.031250 0.000000 
0.593750 0.031250 0.000000 
0.593750 0.062500 0.000000 
0.562500 0.062500 0.000000 
0.593750 0.031250 0.000000 
0.625000 0.031250 0.000000 
0.625000 0.062500 0.000000 
0.593750 0.062500 0.000000 
0.625000 0.031250 0.000000 
0.656250 0.031250 0.000000 
0.656250 0.062500 0.000000 
0.625000 0.062500 0.000000 
0.656250 0.031250 0.000000 
0.687500 0.031250 0.000000 
0.687500 0.062500 0.000000 
0.656250 0.062500 0.000000 
0.687500 0.031250 0.000000 
0.718750 0.031250 0.000000 
0.718750 0.062500 0.000000 
0.687500 0.062500 0.000000 
0.718750 0.031250 0.000000 
0.750000 0.031250 0.000000 
0.750000 0.062500 0.000000 
0.718750 0.062500 0.000000 
0.750000 0.031250 0.000000 
0.781250 0.031250 0.000000 
0.781250 0.062500 0.000000 
0.750000 0.062500 0.000000 
0.781250 0.031250 0.000000 
0.812500 0.031250 0.000000 
0.812500 0.062500 0.000000 
0.781250 0.062500 0.000000 
0.812500 0.031250 0.000000 
0.843750 0.031250 0.000000 
0.843750 0.062500 0.000000 
0.812500 0.062500 0.000000 
0.843750 0.031250 0.000000 
0.875000 0.031250 0.000000 
0.875000 0.062500 0.000000 
0.843750 0.062500 0.000000 
0.875000 0.031250 0.000000 
0.906250 0.031250 0.000000 
0.906250 0.062500 0.000000 
0.875000 0.062500 0.000000 
0.906250 0.031250 0.000000 
0.937500 0.031250 0.000000 
0.937500 0.062500 0.000000 
0.906250 0.062500 0.000000 
0.937500 0.031250 0.000000 
0.968750 0.031250 0.000000 
0.968750 0.062500 0.000000 
0.937500 0.062500 0.000000 
0.968750 0.031250 0.000000 
1.000000 0.031250 0.000000 
1.000000 0.062500 0.000000 
0.968750 0.062500 0.000000 
0.000000 0.062500 0.000000 
0.031250 0.062500 0.000000 
0.031250 0.093750 0.000000 
0.000000 0.093750 0.000000 
0.031250 0.062500 0.000000 
0.062500 0.062500 0.000000 
0.062500 0.093750 0.000000 
0.031250 0.093750 0.000000 
0.062500 0.062500 0.000000 
0.093750 0.062500 0.000000 
0.093750 0.093750 0.000000 
0.062500 0.093750 0.000000 
0.093750 0.062500 0.000000 
0.125000 0.062500 0.000000 
0.125000 0.093750 0.000000 
0.093750 0.093750 0.000000 
0.125000 0.062500 0.000000 
0.156250 0.062500 0.000000 
0.156250 0.093750 0.000000 
0.125000 0.093750 0.000000 
0.156250 0.062500 0.000000 
0.187500 0.062500 0.000000 
0.187500 0.093750 0.000000 
0.156250 0.093750 0.000000 
0.187500 0.062500 0.000000 
0.218750 0.062500 0.000000 
0.218750 0.093750 0.000000 
0.187500 0.093750 0.000000 
0.218750 0.062500 0.000000 
0.250000 0.062500 0.000000 
0.250000 0.093750 0.000000 
0.218750 0.093750 0.000000 
0.250000 0.062500 0.000000 
0.281250 0.062500 0.000000 
0.281250 0.093750 0.000000 
0.250000 0.093750 0.000000 
0.281250 0.062500 0.000000 
0.312500 0.062500 0.000000 
0.312500 0.093750 0.000000 
0.281250 0.093750 0.000000 
0.312500 0.062500 0.000000 
0.343750 0.062500 0.000000 
0.343750 0.093750 0.000000 
0.312500 0.093750 0.000000 
0.343750 0.062500 0.000000 
0.375000 0.062500 0.000000 
0.375000 0.093750 0.000000 
0.343750 0.093750 0.000000 
0.375000 0.062500 0.000000 
0.406250 0.062500 0.000000 
0.406250 0.093750 0.000000 
0.375000 0.093750 0.000000 
0.406250 0.062500 0.000000 
0.437500 0.062500 0.000000 
0.437500 0.093750 0.000000 
0.406250 0.093750 0.000000 
0.437500 0.062500 0.000000 
0.468750 0.062500 0.000000 
0.468750 0.093750 0.000000 
0.437500 0.093750 0.000000 
0.468750 0.062500 0.000000 
0.500000 0.062500 0.000000 
0.500000 0.093750 0.000000 
0.468750 0.093750 0.000000 
0.500000 0.062500 0.000000 
0.531250 0.062500 0.000000 
0.531250 0.093750 0.000000 
0.500000 0.093750 0.000000 
0.531250 0.062500 0.000000 
0.562500 0.062500 0.000000 
0.562500 0.093750 0.000000 
0.531250 0.093750 0.000000 
0.562500 0.062500 0.000000 
0.593750 0.062500 0.000000 
0.593750 0.093750 0.000000 
0.562500 0.093750 0.000000 
0.593750 0.062500 0.000000 
0.625000 0.062500 0.000000 
0.625000 0.093750 0.000000 
0.593750 0.093750 0.000000 
0.625000 0.062500 0.000000 
0.656250 0.062500 0.000000 
0.656250 0.093750 0.000000 
0.625000 0.093750 0.000000 
0.656250 0.062500 0.000000 
0.687500 0.062500 0.000000 
0.687500 0.093750 0.000000 
0.656250 0.093750 0.000000 
0.687500 0.062500 0.000000 
0.718750 0.062500 0.000000 
0.718750 0.093750 0.000000 
0.687500 0.093750 0.000000 
0.718750 0.062500 0.000000 
0.750000 0.062500 0.000000 
0.750000 0.093750 0.000000 
0.718750 0.093750 0.000000 
0.750000 0.062500 0.000000 
[...]
CELL_DATA 1024
FIELD FieldData 1
material 1 1024 int
1
1
1
1
1
1
1
1
1
1
1
1
1
1
1
1
1
1
1
1
1
1
1
1
1
1
1
1
1
1
1
1
1
1
1
1
1
1
1
1
1
1
1
1
1
1
1
1
1
1
1
1
1
1
1
1
1
1
1
1
1
1
1
1
1
1
1
1
1
1
1
1
1
1
1
1
1
1
1
1
1
1
1
1
1
1
1
1
1
1
1
1
1
1
1
1
1
1
1
1
1
1
1
1
1
1
1
1
1
1
1
1
1
1
1
1
1
1
1
1
1
1
1
1
1
1
1
1
1
1
1
1
1
1
1
1
1
1
1
1
1
1
1
1
1
1
1
1
1
1
1
1
1
1
1
1
1
1
1
1
1
1
1
1
1
1
1
1
1
1
1
1
1
1
1
1
1
1
1
1
1
1
1
1
1
1
1
1
1
1
1
1
1
1
1
1
1
1
1
1
1
1
1
1
1
1
1
1
1
1
1
1
1
1
1
1
1
1
1
1
1
1
1
1
1
1
1
1
1
1
1
1
1
1
1
1
1
1
1
1
1
1
1
1
1
1
1
1
1
1
1
1
1
1
1
1
1
1
1
1
1
1
1
1
1
1
1
1
1
1
1
1
1
1
1
1
1
1
1
1
1
1
1
1
1
1
1
1
1
1
1
1
1
1
1
1
1
1
1
1
1
1
1
1
1
1
1
1
1
1
1
1
1
1
1
1
1
1
1
1
1
1
1
1
1
1
1
1
1
1
1
1
1
1
1
1
1
1
1
1
1
1
1
1
1
1
1
1
1
1
1
1
1
1
1
1
1
1
1
1
1
1
1
1
1
1
1
1
1
1
1
1
1
1
1
1
1
1
1
1
1
1
1
1
1
1
1
1
1
1
1
1
1
1
1
1
1
1
1
1
1
1
1
1
1
1
1
1
1
1
1
1
1
1
1
1
1
1
1
1
1
1
1
1
1
1
1
1
1
1
1
1
1
1
1
1
1
1
1
1
1
1
1
1
1
1
1
1
1
1
1
1
1
1
1
1
1
1
1
1
1
1
1
1
1
1
1
1
1
1
1
1
1
1
1
1
1
1
1
1
1
1
1
1
1
1
1
1
1
1
1
1
1
1
1
1
1
1
1
1
1
1
1
1
1
1
1
1
1
1
1
1
1
1
1
1
1
1
1
1
1
1
1
1
1
1
1
1
1
1
1
1
1
1
1
1
1
1
1
1
1
1
1
1
1
1
1
1
1
1
1
1
1
1
1
1
1
1
1
1
1
1
1
1
1
1
1
1
1
1
1
1
1
1
1
1
1
1
1
1
1
1
1
1
1
1
1
1
1
1
1
1
1
1
1
1
1
1
1
1
1
1
1
1
1
1
1
1
1
1
1
1
1
1
1
1
1
1
1
1
1
1
1
1
1
1
1
1
1
1
1
1
1
1
1
1
1
1
1
1
1
1
1
1
1
1
1
1
1
1
1
1
1
1
1
1
1
1
1
1
1
1
1
1
1
1
1
1
1
1
1
1
1
1
1
1
1
1
1
1
1
1
1
1
1
1
1
1
1
1
1
1
1
1
1
1
1
1
1
1
1
1
1
1
1
1
1
1
1
1
1
1
1
1
1
1
1
1
1
1
1
1
1
1
1
1
1
1
1
1
1
1
1
1
1
1
1
1
1
1
1
1
1
1
1
1
1
1
1
1
1
1
1
1
1
1
1
1
1
1
1
1
1
1
1
1
1
1
1
1
1
1
1
1
1
1
1
1
1
1
1
1
1
1
1
1
1
1
1
1
1
1
1
1
1
1
1
1
1
1
1
1
1
1
1
1
1
1
1
1
1
1
1
1
1
1
1
1
1
1
1
1
1
1
1
1
1
1
1
1
1
1
1
1
1
1
1
1
1
1
1
1
1
1
1
1
1
1
1
1
1
1
1
1
1
1
1
1
1
1
1
1
1
1
1
1
1
1
1
1
1
1
1
1
1
1
1
1
1
1
1
1
1
1
1
1
1
1
1
1
1
1
1
1
1
1
1
1
1
1
1
1
1
1
1
1
1
1
1
1
1
1
1
1
1
1
1
1
1
1
1
1
1
1
1
1
1
1
1
1
1
1
1
1
1
1
1
1
1
1
1
1
1
1
1
1
1
1
1
1
1
1
1
1
1
1
1
1
1
1
1
1
1
1
1
1
1
1
1
1
1
1
1
1
1
1
1
1
1
1
1
1
1
1
1
1
1
1
1
1
1
1
1
1
1
1
1
1
1
1
1
1
1
1
1
1
1
1
1
1
1
1
1
1
1
1
1
1
1
1
1
1
1
1
POINT_DATA 4096 SCALARS flux_g1 double 
LOOKUP_TABLE   default 
1.412443
1.293423
1.293423
1.412443
1.291804
1.182950
1.182950
1.291804
1.181469
1.081912
1.081912
1.181469
1.080557
0.989504
0.989504
1.080557
0.988265
0.904989
0.904989
0.988265
0.903856
0.827693
0.827693
0.903856
0.826656
0.756998
0.756998
0.826656
0.756050
0.692342
0.692342
0.756050
0.691475
0.633208
0.633208
0.691475
0.632415
0.579124
0.579124
0.632415
0.578399
0.529660
0.529660
0.578399
0.528997
0.484421
0.484421
0.528997
0.483815
0.443046
0.443046
0.483815
0.442491
0.405205
0.405205
0.442491
0.404697
0.370596
0.370596
0.404697
0.370131
0.338942
0.338942
0.370131
0.338518
0.309993
0.309993
0.338518
0.309604
0.283516
0.283516
0.309605
0.283161
0.259301
0.259300
0.283162
0.258976
0.237152
0.237148
0.258974
0.236853
0.216893
0.216901
0.236846
0.216617
0.198381
0.198415
0.216629
0.198137
0.181474
0.181455
0.198199
0.181280
0.165925
0.165683
0.181266
0.165736
0.151467
0.151208
0.165370
0.151145
0.138353
0.139114
0.150691
0.137891
0.127575
0.130093
0.138792
0.127393
0.119324
0.121370
0.130717
0.120016
0.110564
0.106383
0.123077
0.112076
0.095636
0.080429
0.108048
0.096927
0.071421
0.047120
0.080555
0.071343
0.041922
0.017118
0.045416
1.412443
1.293423
1.293423
1.412443
1.291804
1.182950
1.182950
1.291804
1.181469
1.081912
1.081912
1.181469
1.080557
0.989504
0.989504
1.080557
0.988265
0.904989
0.904989
0.988265
0.903856
0.827693
0.827693
0.903856
0.826656
0.756998
0.756998
0.826656
0.756050
0.692342
0.692342
0.756050
0.691475
0.633208
0.633208
0.691475
0.632415
0.579124
0.579124
0.632415
0.578399
0.529660
0.529660
0.578399
0.528997
0.484421
0.484421
0.528997
0.483815
0.443046
0.443046
0.483815
0.442491
0.405205
0.405205
0.442491
0.404697
0.370596
0.370596
0.404697
0.370131
0.338942
0.338942
0.370131
0.338518
0.309993
0.309993
0.338518
0.309605
0.283516
0.283515
0.309605
0.283162
0.259299
0.259296
0.283160
0.258974
0.237148
0.237154
0.258966
0.236846
0.216905
0.216940
0.236855
0.216636
0.198418
0.198409
0.216700
0.198204
0.181432
0.181187
0.198207
0.181231
0.165639
0.165335
0.180859
0.165299
0.151264
0.152008
0.164772
0.150757
0.139392
0.142093
0.151628
0.139168
0.130353
0.132701
0.142746
0.131091
0.120919
0.116551
0.134586
0.122593
0.104775
0.088204
0.118424
0.106227
0.078288
0.051539
0.088363
0.078213
0.045825
0.018492
0.049641
0.044133
0.017479
-0.000892
0.015900
1.412443
1.293423
1.293423
1.412443
1.291804
1.182950
1.182950
1.291804
1.181469
1.081912
1.081912
1.181469
1.080557
0.989504
0.989504
1.080557
0.988265
0.904989
0.904989
0.988265
0.903856
0.827693
0.827693
0.903856
0.826656
0.756998
0.756998
0.826656
0.756050
0.692342
0.692342
0.756050
0.691475
0.633208
0.633208
0.691475
0.632415
0.579124
0.579124
0.632415
0.578399
0.529660
0.529660
0.578399
0.528997
0.484421
0.484421
0.528997
0.483815
0.443046
0.443046
0.483815
0.442491
0.405205
0.405205
0.442491
0.404697
0.370596
0.370596
0.404697
0.370131
0.338942
0.338943
0.370131
0.338518
0.309993
0.309993
0.338519
0.309605
0.283515
0.283511
0.309605
0.283159
0.259295
0.259299
0.283152
0.258966
0.237158
0.237193
0.258971
0.236862
0.216944
0.216945
0.236927
0.216707
0.198387
0.198143
0.216728
0.198173
0.181139
0.180786
0.197800
0.180780
0.165384
0.166101
0.180176
0.164828
0.152305
0.155192
0.165654
0.152031
0.142396
0.145082
0.155872
0.143180
0.132238
0.127695
0.147161
0.134092
0.114793
0.096742
0.129803
0.116428
0.085824
0.056374
0.096940
0.085754
0.050091
0.019962
0.054259
0.048207
0.018899
-0.001219
0.017081
0.016524
0.000779
-0.006634
-0.003093
1.412443
1.293423
1.293423
1.412443
1.291804
1.182950
1.182950
1.291804
1.181469
1.081912
1.081912
1.181469
1.080557
0.989504
0.989504
1.080557
0.988265
0.904989
0.904989
0.988265
0.903856
0.827693
0.827693
0.903856
0.826656
0.756998
0.756998
0.826656
0.756050
0.692342
0.692342
0.756050
0.691475
0.633208
0.633208
0.691475
0.632415
0.579124
0.579124
0.632415
0.578399
0.529660
0.529660
0.578399
0.528997
0.484421
0.484421
0.528997
0.483815
0.443046
0.443046
0.483815
0.442491
0.405205
0.405205
0.442491
0.404697
0.370596
0.370596
0.404697
0.370131
0.338943
0.338942
0.370132
0.338519
0.309992
0.309989
0.338518
0.309604
0.283511
0.283513
0.309596
0.283151
0.259303
0.259338
0.283153
0.258977
0.237198
0.237211
0.259042
0.236937
0.216925
0.216685
0.236976
0.216696
0.198089
0.197687
0.216328
0.197712
0.180827
0.181504
0.197027
0.180219
0.166416
0.169491
0.180982
0.166083
0.155542
0.158608
0.170193
0.156372
0.144612
0.139910
0.160901
0.146663
0.125775
0.106120
0.142284
0.127616
0.094094
0.061665
0.106365
0.094032
0.054754
0.021534
0.059306
0.052655
0.020423
-0.001608
0.018330
0.017788
0.000648
-0.007285
-0.003658
-0.001017
-0.004877
-0.004177
-0.007716
1.412443
1.293423
1.293423
1.412443
1.291804
1.182950
1.182950
1.291804
1.181469
1.081912
1.081912
1.181469
1.080557
0.989504
0.989504
1.080557
0.988265
0.904989
0.904989
0.988265
0.903856
0.827693
0.827693
0.903856
0.826656
0.756998
0.756998
0.826656
0.756050
0.692342
0.692342
0.756050
0.691475
0.633208
0.633208
0.691475
0.632415
0.579124
0.579124
0.632415
0.578399
0.529660
0.529660
0.578399
0.528997
0.484421
0.484421
0.528997
0.483815
0.443046
0.443046
0.483815
0.442491
0.405205
0.405205
0.442491
0.404697
0.370596
0.370596
0.404698
0.370132
0.338942
0.338939
0.370132
0.338518
0.309988
0.309988
0.338511
0.309595
0.283516
0.283550
0.309593
0.283158
0.259344
0.259368
0.283221
0.259054
0.237193
0.236962
0.259113
0.236948
0.216626
0.216174
0.236591
0.216232
0.197718
0.198340
0.215463
0.197055
0.181835
0.185099
0.197732
0.181436
0.169894
0.173383
0.185816
0.170769
0.158135
0.153298
0.175911
0.160406
0.137813
0.116423
0.155974
0.139888
0.103174
0.067455
0.116724
0.103122
0.059851
0.023212
0.064822
0.057510
0.022056
-0.002067
0.019646
0.019131
0.000482
-0.007994
-0.004309
-0.001336
-0.005345
-0.004419
-0.008428
-0.005761
-0.003344
-0.000520
-0.003994
1.412443
1.293423
1.293423
1.412443
1.291804
1.182950
1.182950
1.291804
1.181469
1.081912
1.081912
1.181469
1.080557
0.989504
0.989504
1.080557
0.988265
0.904989
0.904989
0.988265
0.903856
0.827693
0.827693
0.903856
0.826656
0.756998
0.756998
0.826656
0.756050
0.692342
0.692342
0.756050
0.691475
0.633208
0.633208
0.691475
0.632415
0.579124
0.579124
0.632415
0.578399
0.529660
0.529660
0.578399
0.528997
0.484421
0.484421
0.528997
0.483815
0.443046
0.443046
0.483814
0.442491
0.405205
0.405205
0.442492
0.404698
0.370596
0.370593
0.404698
0.370132
0.338938
0.338937
0.370125
0.338509
0.309991
0.310022
0.338504
0.309598
0.283557
0.283592
0.309657
0.283235
0.259352
0.259134
0.283313
0.259088
0.236898
0.236396
0.258751
0.236486
0.216193
0.216744
0.235633
0.215472
0.198686
0.202134
0.216038
0.198209
0.185561
0.189519
0.202859
0.186477
0.172913
0.167972
0.192304
0.175426
0.151011
0.127745
0.170992
0.153352
0.113143
0.073791
0.128114
0.113105
0.065422
0.024999
0.070850
0.062809
0.023804
-0.002607
0.021028
0.020556
0.000273
-0.008765
-0.005058
-0.001709
-0.005853
-0.004662
-0.009195
-0.006275
-0.003530
-0.000444
-0.004173
-0.003230
-0.000582
0.000799
-0.000055
1.412443
1.293423
1.293423
1.412443
1.291804
1.182950
1.182950
1.291804
1.181469
1.081912
1.081912
1.181469
1.080557
0.989504
0.989504
1.080557
0.988265
0.904989
0.904989
0.988265
0.903856
0.827693
0.827693
0.903856
0.826656
0.756998
0.756998
0.826656
0.756050
0.692342
0.692342
0.756050
0.691475
0.633208
0.633208
0.691475
0.632415
0.579124
0.579124
0.632415
0.578399
0.529660
0.529660
0.578399
0.528997
0.484421
0.484421
0.528997
0.483814
0.443046
0.443046
0.483815
0.442492
0.405205
0.405203
0.442492
0.404698
0.370592
0.370589
0.404693
0.370124
0.338939
0.338967
0.370116
0.338508
0.310030
0.310075
0.338561
0.309673
0.283579
0.283379
0.309770
0.283294
0.259067
0.258517
0.282983
0.258638
0.236401
0.236864
0.257702
0.235620
0.217103
0.220726
0.236049
0.216537
0.202660
0.207139
0.221449
0.203615
0.189062
0.184057
0.210205
0.191842
0.165481
0.140190
0.187466
0.168125
0.124091
0.080727
0.140641
0.124072
0.071511
0.026898
0.077438
0.068591
0.025671
-0.003241
0.022473
0.022063
0.000015
-0.009602
-0.005918
-0.002145
-0.006402
-0.004902
-0.010021
-0.006826
-0.003715
-0.000351
-0.004342
-0.003371
-0.000538
0.000881
0.000064
-0.000248
0.000491
0.000432
0.000939
1.412443
1.293423
1.293423
1.412443
1.291804
1.182950
1.182950
1.291804
1.181469
1.081912
1.081912
1.181469
1.080557
0.989504
0.989504
1.080557
0.988265
0.904989
0.904989
0.988265
0.903856
0.827693
0.827693
0.903856
0.826656
0.756998
0.756998
0.826656
0.756050
0.692342
0.692342
0.756050
0.691475
0.633208
0.633208
0.691475
0.632415
0.579124
0.579124
0.632415
0.578399
0.529660
0.529660
0.578399
0.528997
0.484421
0.484422
0.528997
0.483815
0.443046
0.443045
0.483816
0.442492
0.405202
0.405198
0.442488
0.404691
0.370590
0.370614
0.404680
0.370118
0.338975
0.339029
0.370165
0.338578
0.310066
0.309888
0.338692
0.309756
0.283309
0.282715
0.309481
0.282865
0.258506
0.258862
0.281850
0.257664
0.237233
0.241016
0.257925
0.236565
0.221323
0.226376
0.241724
0.222309
0.206703
0.201689
0.229748
0.209778
0.181346
0.153874
0.205541
0.184335
0.136118
0.088318
0.154424
0.136124
0.078165
0.028910
0.084637
0.074901
0.027661
-0.003983
0.023977
0.023651
-0.000301
-0.010508
-0.006904
-0.002652
-0.006994
-0.005134
-0.010906
-0.007415
-0.003897
-0.000237
-0.004494
-0.003502
-0.000482
0.000966
0.000203
-0.000174
0.000543
0.000430
0.001013
0.000594
0.000300
-0.000022
0.000354
1.412443
1.293423
1.293423
1.412443
1.291804
1.182950
1.182950
1.291804
1.181469
1.081912
1.081912
1.181469
1.080557
0.989504
0.989504
1.080557
0.988265
0.904989
0.904989
0.988265
0.903856
0.827693
0.827693
0.903856
0.826656
0.756998
0.756998
0.826656
0.756050
0.692342
0.692342
0.756050
0.691475
0.633208
0.633208
0.691475
0.632415
0.579124
0.579124
0.632415
0.578399
0.529660
0.529661
0.578399
0.528997
0.484422
0.484420
0.528998
0.483816
0.443044
0.443039
0.483813
0.442486
0.405198
0.405218
0.442474
0.404682
0.370623
0.370683
0.404719
0.370181
0.339024
0.338873
0.370310
0.338685
0.309817
0.309187
0.338455
0.309359
0.282686
0.282916
0.308273
0.281782
0.259236
0.263159
0.281843
0.258452
0.241691
0.247372
0.263835
0.242700
0.225974
0.221015
0.251077
0.229374
0.198743
0.168925
0.225373
0.202124
0.149334
0.096629
0.169594
0.149372
0.085438
0.031036
0.092504
0.081785
0.029778
-0.004851
0.025531
0.025319
-0.000684
-0.011486
-0.008034
-0.003241
-0.007631
-0.005354
-0.011852
-0.008041
-0.004071
-0.000101
-0.004625
-0.003621
-0.000413
0.001052
0.000363
-0.000088
0.000596
0.000424
0.001086
0.000640
0.000299
-0.000041
0.000339
0.000252
0.000002
-0.000083
-0.000076
1.412443
1.293423
1.293423
1.412443
1.291804
1.182950
1.182950
1.291804
1.181469
1.081912
1.081912
1.181469
1.080557
0.989504
0.989504
1.080557
0.988265
0.904989
0.904989
0.988265
0.903856
0.827693
0.827693
0.903856
0.826656
0.756998
0.756998
0.826656
0.756050
0.692342
0.692342
0.756050
0.691475
0.633208
0.633208
0.691475
0.632415
0.579124
0.579125
0.632415
0.578399
0.529661
0.529660
0.578400
0.528998
0.484420
0.484415
0.528997
0.483811
0.443039
0.443053
0.483798
0.442474
0.405226
0.405291
0.442502
0.404736
0.370682
0.370564
0.404875
0.370311
0.338802
0.338144
0.370134
0.338331
0.309137
0.309221
0.337187
0.308173
0.283290
0.287324
0.307999
0.282375
0.263918
0.270285
0.287946
0.264938
0.247020
0.242199
0.274349
0.250776
0.217820
0.185487
0.247133
0.221650
0.163859
0.105729
0.186297
0.163938
0.093387
0.033273
0.101100
0.089293
0.032025
-0.005862
0.027127
0.027065
-0.001145
-0.012540
-0.009327
-0.003921
-0.008314
-0.005554
-0.012858
-0.008705
-0.004235
0.000059
-0.004728
-0.003723
-0.000329
0.001138
0.000546
0.000012
0.000649
0.000411
0.001155
0.000685
0.000294
-0.000061
0.000318
0.000242
-0.000009
-0.000084
-0.000094
-0.000032
-0.000047
-0.000013
-0.000077
1.412443
1.293423
1.293423
1.412443
1.291804
1.182950
1.182950
1.291804
1.181469
1.081912
1.081912
1.181469
1.080557
0.989504
0.989504
1.080557
0.988265
0.904989
0.904989
0.988265
0.903856
0.827693
0.827693
0.903856
0.826656
0.756998
0.756998
0.826656
0.756050
0.692342
0.692342
0.756050
0.691475
0.633208
0.633208
0.691474
0.632415
0.579125
0.579124
0.632415
0.578400
0.529660
0.529655
0.578400
0.528995
0.484414
0.484423
0.528983
0.483797
0.443060
0.443127
0.483814
0.442517
0.405294
0.405211
0.442662
0.404883
0.370495
0.369821
0.404768
0.370012
0.338074
0.337993
0.368826
0.337050
0.309589
0.313696
0.336608
0.308526
0.288171
0.295280
0.314237
0.289186
0.269999
0.265418
0.299732
0.274147
0.238740
0.203717
0.271012
0.243083
0.179831
0.115695
0.204700
0.179962
0.102074
0.035617
0.110494
0.097481
0.034402
-0.007039
0.028750
0.028881
-0.001695
-0.013670
-0.010805
-0.004705
-0.009042
-0.005729
-0.013923
-0.009403
-0.004383
0.000246
-0.004793
-0.003804
-0.000229
0.001223
0.000752
0.000125
0.000702
0.000392
0.001220
0.000726
0.000286
-0.000082
0.000289
0.000228
-0.000021
-0.000085
-0.000113
-0.000043
-0.000048
-0.000009
-0.000076
-0.000045
-0.000009
0.000010
-0.000002
1.412443
1.293423
1.293423
1.412443
1.291804
1.182950
1.182950
1.291804
1.181469
1.081912
1.081912
1.181469
1.080557
0.989504
0.989504
1.080557
0.988265
0.904989
0.904989
0.988265
0.903856
0.827693
0.827693
0.903856
0.826656
0.756998
0.756998
0.826656
0.756050
0.692342
0.692342
0.756050
0.691475
0.633208
0.633208
0.691475
0.632416
0.579124
0.579120
0.632416
0.578399
0.529654
0.529658
0.578387
0.528981
0.484429
0.484494
0.528987
0.483828
0.443134
0.443089
0.483972
0.442678
0.405146
0.404472
0.442630
0.404651
0.369729
0.369467
0.403447
0.368651
0.338347
0.342477
0.367906
0.337118
0.314636
0.322540
0.342904
0.315625
0.295084
0.290866
0.327407
0.299660
0.261683
0.223793
0.297215
0.266615
0.197399
0.126610
0.224985
0.197596
0.111568
0.038061
0.120758
0.106408
0.036908
-0.008407
0.030380
0.030759
-0.002349
-0.014878
-0.012492
-0.005607
-0.009815
-0.005868
-0.015042
-0.010133
-0.004511
0.000461
-0.004813
-0.003857
-0.000113
0.001304
0.000982
0.000253
0.000752
0.000365
0.001277
0.000764
0.000272
-0.000104
0.000254
0.000210
-0.000034
-0.000083
-0.000131
-0.000054
-0.000048
-0.000005
-0.000072
-0.000044
-0.000007
0.000010
0.000002
-0.000003
0.000005
0.000003
0.000010
1.412443
1.293423
1.293423
1.412443
1.291804
1.182950
1.182950
1.291804
1.181469
1.081912
1.081912
1.181469
1.080557
0.989504
0.989504
1.080557
0.988265
0.904989
0.904989
0.988265
0.903856
0.827693
0.827693
0.903856
0.826656
0.756998
0.756998
0.826656
0.756050
0.692342
0.692342
0.756050
0.691475
0.633208
0.633205
0.691476
0.632415
0.579119
0.579119
0.632406
0.578385
0.529663
0.529722
0.578381
0.528999
0.484504
0.484497
0.529134
0.483994
0.443031
0.442374
0.484017
0.442523
0.404359
0.403903
0.441329
0.403233
0.369797
0.373889
0.402155
0.368385
0.343512
0.352258
0.374162
0.344448
0.322458
0.318756
0.357565
0.327501
0.286845
0.245914
0.325970
0.292453
0.216731
0.138568
0.247359
0.217012
0.121943
0.040591
0.131973
0.116137
0.039539
-0.009993
0.031994
0.032688
-0.003122
-0.016161
-0.014416
-0.006640
-0.010631
-0.005962
-0.016211
-0.010890
-0.004610
0.000706
-0.004777
-0.003877
0.000020
0.001377
0.001235
0.000395
0.000799
0.000329
0.001324
0.000796
0.000254
-0.000125
0.000212
0.000188
-0.000046
-0.000080
-0.000148
-0.000065
-0.000047
-0.000001
-0.000067
-0.000042
-0.000004
0.000010
0.000006
-0.000001
0.000005
0.000002
0.000010
0.000005
0.000001
-0.000001
0.000001
1.412443
1.293423
1.293423
1.412443
1.291804
1.182950
1.182950
1.291804
1.181469
1.081912
1.081912
1.181469
1.080557
0.989504
0.989504
1.080557
0.988265
0.904989
0.904989
0.988265
0.903856
0.827693
0.827693
0.903856
0.826656
0.756998
0.756998
0.826656
0.756050
0.692342
0.692340
0.756051
0.691476
0.633204
0.633200
0.691469
0.632403
0.579122
0.579173
0.632392
0.578390
0.529735
0.529763
0.578510
0.529163
0.484448
0.483830
0.529256
0.483925
0.442241
0.441585
0.482777
0.441076
0.404198
0.408177
0.439644
0.402586
0.375019
0.384644
0.408246
0.375866
0.352322
0.349318
0.390412
0.357871
0.314441
0.270301
0.357526
0.320828
0.238014
0.151673
0.272054
0.238400
0.133282
0.043191
0.144227
0.126738
0.042287
-0.011832
0.033557
0.034649
-0.004031
-0.017515
-0.016607
-0.007821
-0.011486
-0.005997
-0.017418
-0.011668
-0.004675
0.000980
-0.004672
-0.003857
0.000171
0.001440
0.001511
0.000550
0.000839
0.000285
0.001357
0.000820
0.000231
-0.000145
0.000162
0.000161
-0.000059
-0.000076
-0.000163
-0.000074
-0.000045
0.000004
-0.000061
-0.000038
-0.000002
0.000010
0.000009
0.000001
0.000005
0.000001
0.000009
0.000005
0.000001
-0.000001
0.000000
0.000001
-0.000000
-0.000000
-0.000001
1.412443
1.293423
1.293423
1.412443
1.291804
1.182950
1.182950
1.291804
1.181469
1.081912
1.081912
1.181469
1.080557
0.989504
0.989504
1.080557
0.988265
0.904989
0.904989
0.988265
0.903856
0.827693
0.827693
0.903856
0.826656
0.756998
0.756997
0.826657
0.756051
0.692339
0.692334
0.756048
0.691467
0.633202
0.633242
0.691450
0.632397
0.579187
0.579245
0.632496
0.578543
0.529725
0.529168
0.578700
0.529182
0.483680
0.482826
0.528121
0.482489
0.441834
0.445610
0.480689
0.440006
0.409397
0.419922
0.445416
0.410112
0.384888
0.382800
0.426167
0.390984
0.344708
0.297205
0.392153
0.351994
0.261459
0.166038
0.299334
0.261977
0.145672
0.045833
0.157614
0.138285
0.045141
-0.013959
0.035027
0.036621
-0.005097
-0.018933
-0.019098
-0.009166
-0.012374
-0.005959
-0.018650
-0.012455
-0.004696
0.001283
-0.004485
-0.003788
0.000339
0.001489
0.001805
0.000716
0.000872
0.000231
0.001372
0.000834
0.000203
-0.000163
0.000105
0.000130
-0.000070
-0.000069
-0.000175
-0.000082
-0.000042
0.000008
-0.000052
-0.000035
0.000000
0.000010
0.000012
0.000003
0.000005
0.000001
0.000008
0.000004
0.000001
-0.000001
-0.000000
0.000000
-0.000000
-0.000000
-0.000001
-0.000000
-0.000000
0.000000
-0.000000
1.412443
1.293423
1.293423
1.412443
1.291804
1.182950
1.182950
1.291804
1.181469
1.081912
1.081912
1.181469
1.080557
0.989504
0.989504
1.080557
0.988265
0.904989
0.904989
0.988265
0.903856
0.827693
0.827692
0.903857
0.826657
0.756997
0.756991
0.826656
0.756045
0.692334
0.692362
0.756028
0.691452
0.633255
0.633336
0.691524