# vtk DataFile Version 3.0 
Date: 3/9/2016   Time: 10:2
ASCII 
DATASET UNSTRUCTURED_GRID 
 
POINTS 256 float 
0.000000 0.000000 0.000000 
0.125000 0.000000 0.000000 
0.125000 0.125000 0.000000 
0.000000 0.125000 0.000000 
0.125000 0.000000 0.000000 
0.250000 0.000000 0.000000 
0.250000 0.125000 0.000000 
0.125000 0.125000 0.000000 
0.250000 0.000000 0.000000 
0.375000 0.000000 0.000000 
0.375000 0.125000 0.000000 
0.250000 0.125000 0.000000 
0.375000 0.000000 0.000000 
0.500000 0.000000 0.000000 
0.500000 0.125000 0.000000 
0.375000 0.125000 0.000000 
0.500000 0.000000 0.000000 
0.625000 0.000000 0.000000 
0.625000 0.125000 0.000000 
0.500000 0.125000 0.000000 
0.625000 0.000000 0.000000 
0.750000 0.000000 0.000000 
0.750000 0.125000 0.000000 
0.625000 0.125000 0.000000 
0.750000 0.000000 0.000000 
0.875000 0.000000 0.000000 
0.875000 0.125000 0.000000 
0.750000 0.125000 0.000000 
0.875000 0.000000 0.000000 
1.000000 0.000000 0.000000 
1.000000 0.125000 0.000000 
0.875000 0.125000 0.000000 
0.000000 0.125000 0.000000 
0.125000 0.125000 0.000000 
0.125000 0.250000 0.000000 
0.000000 0.250000 0.000000 
0.125000 0.125000 0.000000 
0.250000 0.125000 0.000000 
0.250000 0.250000 0.000000 
0.125000 0.250000 0.000000 
0.250000 0.125000 0.000000 
0.375000 0.125000 0.000000 
0.375000 0.250000 0.000000 
0.250000 0.250000 0.000000 
0.375000 0.125000 0.000000 
0.500000 0.125000 0.000000 
0.500000 0.250000 0.000000 
0.375000 0.250000 0.000000 
0.500000 0.125000 0.000000 
0.625000 0.125000 0.000000 
0.625000 0.250000 0.000000 
0.500000 0.250000 0.000000 
0.625000 0.125000 0.000000 
0.750000 0.125000 0.000000 
0.750000 0.250000 0.000000 
0.625000 0.250000 0.000000 
0.750000 0.125000 0.000000 
0.875000 0.125000 0.000000 
0.875000 0.250000 0.000000 
0.750000 0.250000 0.000000 
0.875000 0.125000 0.000000 
1.000000 0.125000 0.000000 
1.000000 0.250000 0.000000 
0.875000 0.250000 0.000000 
0.000000 0.250000 0.000000 
0.125000 0.250000 0.000000 
0.125000 0.375000 0.000000 
0.000000 0.375000 0.000000 
0.125000 0.250000 0.000000 
0.250000 0.250000 0.000000 
0.250000 0.375000 0.000000 
0.125000 0.375000 0.000000 
0.250000 0.250000 0.000000 
0.375000 0.250000 0.000000 
0.375000 0.375000 0.000000 
0.250000 0.375000 0.000000 
0.375000 0.250000 0.000000 
0.500000 0.250000 0.000000 
0.500000 0.375000 0.000000 
0.375000 0.375000 0.000000 
0.500000 0.250000 0.000000 
0.625000 0.250000 0.000000 
0.625000 0.375000 0.000000 
0.500000 0.375000 0.000000 
0.625000 0.250000 0.000000 
0.750000 0.250000 0.000000 
0.750000 0.375000 0.000000 
0.625000 0.375000 0.000000 
0.750000 0.250000 0.000000 
0.875000 0.250000 0.000000 
0.875000 0.375000 0.000000 
0.750000 0.375000 0.000000 
0.875000 0.250000 0.000000 
1.000000 0.250000 0.000000 
1.000000 0.375000 0.000000 
0.875000 0.375000 0.000000 
0.000000 0.375000 0.000000 
0.125000 0.375000 0.000000 
0.125000 0.500000 0.000000 
0.000000 0.500000 0.000000 
0.125000 0.375000 0.000000 
0.250000 0.375000 0.000000 
0.250000 0.500000 0.000000 
0.125000 0.500000 0.000000 
0.250000 0.375000 0.000000 
0.375000 0.375000 0.000000 
0.375000 0.500000 0.000000 
0.250000 0.500000 0.000000 
0.375000 0.375000 0.000000 
0.500000 0.375000 0.000000 
0.500000 0.500000 0.000000 
0.375000 0.500000 0.000000 
0.500000 0.375000 0.000000 
0.625000 0.375000 0.000000 
0.625000 0.500000 0.000000 
0.500000 0.500000 0.000000 
0.625000 0.375000 0.000000 
0.750000 0.375000 0.000000 
0.750000 0.500000 0.000000 
0.625000 0.500000 0.000000 
0.750000 0.375000 0.000000 
0.875000 0.375000 0.000000 
0.875000 0.500000 0.000000 
0.750000 0.500000 0.000000 
0.875000 0.375000 0.000000 
1.000000 0.375000 0.000000 
1.000000 0.500000 0.000000 
0.875000 0.500000 0.000000 
0.000000 0.500000 0.000000 
0.125000 0.500000 0.000000 
0.125000 0.625000 0.000000 
0.000000 0.625000 0.000000 
0.125000 0.500000 0.000000 
0.250000 0.500000 0.000000 
0.250000 0.625000 0.000000 
0.125000 0.625000 0.000000 
0.250000 0.500000 0.000000 
0.375000 0.500000 0.000000 
0.375000 0.625000 0.000000 
0.250000 0.625000 0.000000 
0.375000 0.500000 0.000000 
0.500000 0.500000 0.000000 
0.500000 0.625000 0.000000 
0.375000 0.625000 0.000000 
0.500000 0.500000 0.000000 
0.625000 0.500000 0.000000 
0.625000 0.625000 0.000000 
0.500000 0.625000 0.000000 
0.625000 0.500000 0.000000 
0.750000 0.500000 0.000000 
0.750000 0.625000 0.000000 
0.625000 0.625000 0.000000 
0.750000 0.500000 0.000000 
0.875000 0.500000 0.000000 
0.875000 0.625000 0.000000 
0.750000 0.625000 0.000000 
0.875000 0.500000 0.000000 
1.000000 0.500000 0.000000 
1.000000 0.625000 0.000000 
0.875000 0.625000 0.000000 
0.000000 0.625000 0.000000 
0.125000 0.625000 0.000000 
0.125000 0.750000 0.000000 
0.000000 0.750000 0.000000 
0.125000 0.625000 0.000000 
0.250000 0.625000 0.000000 
0.250000 0.750000 0.000000 
0.125000 0.750000 0.000000 
0.250000 0.625000 0.000000 
0.375000 0.625000 0.000000 
0.375000 0.750000 0.000000 
0.250000 0.750000 0.000000 
0.375000 0.625000 0.000000 
0.500000 0.625000 0.000000 
0.500000 0.750000 0.000000 
0.375000 0.750000 0.000000 
0.500000 0.625000 0.000000 
0.625000 0.625000 0.000000 
0.625000 0.750000 0.000000 
0.500000 0.750000 0.000000 
0.625000 0.625000 0.000000 
0.750000 0.625000 0.000000 
0.750000 0.750000 0.000000 
0.625000 0.750000 0.000000 
0.750000 0.625000 0.000000 
0.875000 0.625000 0.000000 
0.875000 0.750000 0.000000 
0.750000 0.750000 0.000000 
0.875000 0.625000 0.000000 
1.000000 0.625000 0.000000 
1.000000 0.750000 0.000000 
0.875000 0.750000 0.000000 
0.000000 0.750000 0.000000 
0.125000 0.750000 0.000000 
0.125000 0.875000 0.000000 
0.000000 0.875000 0.000000 
0.125000 0.750000 0.000000 
0.250000 0.750000 0.000000 
0.250000 0.875000 0.000000 
0.125000 0.875000 0.000000 
0.250000 0.750000 0.000000 
0.375000 0.750000 0.000000 
0.375000 0.875000 0.000000 
0.250000 0.875000 0.000000 
0.375000 0.750000 0.000000 
0.500000 0.750000 0.000000 
0.500000 0.875000 0.000000 
0.375000 0.875000 0.000000 
0.500000 0.750000 0.000000 
0.625000 0.750000 0.000000 
0.625000 0.875000 0.000000 
0.500000 0.875000 0.000000 
0.625000 0.750000 0.000000 
0.750000 0.750000 0.000000 
0.750000 0.875000 0.000000 
0.625000 0.875000 0.000000 
0.750000 0.750000 0.000000 
0.875000 0.750000 0.000000 
0.875000 0.875000 0.000000 
0.750000 0.875000 0.000000 
0.875000 0.750000 0.000000 
1.000000 0.750000 0.000000 
1.000000 0.875000 0.000000 
0.875000 0.875000 0.000000 
0.000000 0.875000 0.000000 
0.125000 0.875000 0.000000 
0.125000 1.000000 0.000000 
0.000000 1.000000 0.000000 
0.125000 0.875000 0.000000 
0.250000 0.875000 0.000000 
0.250000 1.000000 0.000000 
0.125000 1.000000 0.000000 
0.250000 0.875000 0.000000 
0.375000 0.875000 0.000000 
0.375000 1.000000 0.000000 
0.250000 1.000000 0.000000 
0.375000 0.875000 0.000000 
0.500000 0.875000 0.000000 
0.500000 1.000000 0.000000 
0.375000 1.000000 0.000000 
0.500000 0.875000 0.000000 
0.625000 0.875000 0.000000 
0.625000 1.000000 0.000000 
0.500000 1.000000 0.000000 
0.625000 0.875000 0.000000 
0.750000 0.875000 0.000000 
0.750000 1.000000 0.000000 
0.625000 1.000000 0.000000 
0.750000 0.875000 0.000000 
0.875000 0.875000 0.000000 
0.875000 1.000000 0.000000 
0.750000 1.000000 0.000000 
0.875000 0.875000 0.000000 
1.000000 0.875000 0.000000 
1.000000 1.000000 0.000000 
0.875000 1.000000 0.000000 
CELLS 64 320 
 4 0 1 2 3  
 4 4 5 6 7  
 4 8 9 10 11  
 4 12 13 14 15  
 4 16 17 18 19  
 4 20 21 22 23  
 4 24 25 26 27  
 4 28 29 30 31  
 4 32 33 34 35  
 4 36 37 38 39  
 4 40 41 42 43  
 4 44 45 46 47  
 4 48 49 50 51  
 4 52 53 54 55  
 4 56 57 58 59  
 4 60 61 62 63  
 4 64 65 66 67  
 4 68 69 70 71  
 4 72 73 74 75  
 4 76 77 78 79  
 4 80 81 82 83  
 4 84 85 86 87  
 4 88 89 90 91  
 4 92 93 94 95  
 4 96 97 98 99  
 4 100 101 102 103  
 4 104 105 106 107  
 4 108 109 110 111  
 4 112 113 114 115  
 4 116 117 118 119  
 4 120 121 122 123  
 4 124 125 126 127  
 4 128 129 130 131  
 4 132 133 134 135  
 4 136 137 138 139  
 4 140 141 142 143  
 4 144 145 146 147  
 4 148 149 150 151  
 4 152 153 154 155  
 4 156 157 158 159  
 4 160 161 162 163  
 4 164 165 166 167  
 4 168 169 170 171  
 4 172 173 174 175  
 4 176 177 178 179  
 4 180 181 182 183  
 4 184 185 186 187  
 4 188 189 190 191  
 4 192 193 194 195  
 4 196 197 198 199  
 4 200 201 202 203  
 4 204 205 206 207  
 4 208 209 210 211  
 4 212 213 214 215  
 4 216 217 218 219  
 4 220 221 222 223  
 4 224 225 226 227  
 4 228 229 230 231  
 4 232 233 234 235  
 4 236 237 238 239  
 4 240 241 242 243  
 4 244 245 246 247  
 4 248 249 250 251  
 4 252 253 254 255  
 
CELL_TYPES 64
7
7
7
7
7
7
7
7
7
7
7
7
7
7
7
7
7
7
7
7
7
7
7
7
7
7
7
7
7
7
7
7
7
7
7
7
7
7
7
7
7
7
7
7
7
7
7
7
7
7
7
7
7
7
7
7
7
7
7
7
7
7
7
7
CELL_DATA 64
FIELD FieldData 1
material 1 64 int
1
1
1
1
1
1
1
1
1
1
1
1
1
1
1
1
1
1
1
1
1
1
1
1
1
1
1
1
1
1
1
1
1
1
1
1
1
1
1
1
1
1
1
1
1
1
1
1
1
1
1
1
1
1
1
1
1
1
1
1
1
1
1
1
POINT_DATA 256 SCALARS flux_g1 double 
LOOKUP_TABLE   default 
1.390344
0.989302
0.989303
1.390342
0.972598
0.692068
0.692093
0.972613
0.680436
0.484126
0.483707
0.680526
0.475906
0.338128
0.339046
0.474538
0.331552
0.238368
0.244439
0.333934
0.235881
0.171470
0.162218
0.246794
0.172740
0.108478
0.068329
0.160497
0.105838
0.043673
0.004505
0.059233
1.390342
0.989303
0.989321
1.390339
0.972625
0.692092
0.691812
0.972775
0.680489
0.483576
0.483860
0.679135
0.474205
0.339798
0.348092
0.475537
0.335667
0.244927
0.234468
0.351913
0.247311
0.156693
0.098287
0.232894
0.153124
0.062285
0.004504
0.084372
0.053395
0.005565
-0.012307
-0.003400
1.390341
0.989326
0.989258
1.390418
0.972800
0.691679
0.691145
0.971992
0.678612
0.484508
0.494784
0.677688
0.477475
0.349396
0.339321
0.500607
0.353731
0.226743
0.141711
0.338898
0.222065
0.088798
0.003107
0.120105
0.075211
0.006342
-0.017531
-0.008273
0.000365
-0.007213
-0.002721
-0.016211
1.390450
0.989205
0.988440
1.390417
0.971495
0.691406
0.701699
0.967595
0.679241
0.497391
0.491617
0.709375
0.505020
0.328902
0.205119
0.495039
0.323143
0.126536
-0.001479
0.170824
0.105462
0.006361
-0.024535
-0.017644
-0.001835
-0.009753
-0.002223
-0.021566
-0.008822
-0.001374
0.001661
-0.000369
1.390271
0.988284
0.993510
1.386245
0.967637
0.705722
0.712263
0.998947
0.718411
0.478675
0.299041
0.726974
0.472674
0.180187
-0.013134
0.242649
0.146784
0.004465
-0.033230
-0.035372
-0.006330
-0.012642
-0.000697
-0.027238
-0.010754
-0.000953
0.001989
0.001283
-0.000154
0.000632
0.000007
0.001563
1.384864
0.996705
1.025947
1.395336
1.014071
0.699829
0.442844
1.075248
0.697467
0.256309
-0.040800
0.343948
0.201481
-0.001726
-0.041979
-0.068717
-0.014693
-0.015119
0.002308
-0.030962
-0.011815
-0.000107
0.001924
0.003751
0.000545
0.000617
-0.000160
0.001313
0.000458
-0.000012
-0.000062
-0.000189
1.406069
1.027325
0.686682
1.597038
1.047152
0.363876
-0.108116
0.485548
0.267953
-0.016905
-0.043816
-0.131021
-0.028534
-0.015021
0.006271
-0.026727
-0.010325
0.000966
0.001135
0.006023
0.001181
0.000409
-0.000234
0.000589
0.000259
-0.000042
-0.000020
-0.000197
-0.000042
-0.000009
0.000007
-0.000007
1.647115
0.514148
-0.300336
0.677992
0.319749
-0.047619
-0.014398
-0.237009
-0.044079
-0.007746
0.006247
-0.003109
-0.004227
0.001213
0.000017
0.004593
0.001003
0.000096
-0.000118
-0.000129
0.000039
-0.000027
0.000005
-0.000081
-0.000020
-0.000001
0.000002
0.000006
0.000000
0.000001
-0.000000
0.000001
 
