# vtk DataFile Version 3.0 
Date: 3/9/2016   Time: 10:2
ASCII 
DATASET UNSTRUCTURED_GRID 
 
POINTS 1024 float 
0.000000 0.000000 0.000000 
0.062500 0.000000 0.000000 
0.062500 0.062500 0.000000 
0.000000 0.062500 0.000000 
0.062500 0.000000 0.000000 
0.125000 0.000000 0.000000 
0.125000 0.062500 0.000000 
0.062500 0.062500 0.000000 
0.125000 0.000000 0.000000 
0.187500 0.000000 0.000000 
0.187500 0.062500 0.000000 
0.125000 0.062500 0.000000 
0.187500 0.000000 0.000000 
0.250000 0.000000 0.000000 
0.250000 0.062500 0.000000 
0.187500 0.062500 0.000000 
0.250000 0.000000 0.000000 
0.312500 0.000000 0.000000 
0.312500 0.062500 0.000000 
0.250000 0.062500 0.000000 
0.312500 0.000000 0.000000 
0.375000 0.000000 0.000000 
0.375000 0.062500 0.000000 
0.312500 0.062500 0.000000 
0.375000 0.000000 0.000000 
0.437500 0.000000 0.000000 
0.437500 0.062500 0.000000 
0.375000 0.062500 0.000000 
0.437500 0.000000 0.000000 
0.500000 0.000000 0.000000 
0.500000 0.062500 0.000000 
0.437500 0.062500 0.000000 
0.500000 0.000000 0.000000 
0.562500 0.000000 0.000000 
0.562500 0.062500 0.000000 
0.500000 0.062500 0.000000 
0.562500 0.000000 0.000000 
0.625000 0.000000 0.000000 
0.625000 0.062500 0.000000 
0.562500 0.062500 0.000000 
0.625000 0.000000 0.000000 
0.687500 0.000000 0.000000 
0.687500 0.062500 0.000000 
0.625000 0.062500 0.000000 
0.687500 0.000000 0.000000 
0.750000 0.000000 0.000000 
0.750000 0.062500 0.000000 
0.687500 0.062500 0.000000 
0.750000 0.000000 0.000000 
0.812500 0.000000 0.000000 
0.812500 0.062500 0.000000 
0.750000 0.062500 0.000000 
0.812500 0.000000 0.000000 
0.875000 0.000000 0.000000 
0.875000 0.062500 0.000000 
0.812500 0.062500 0.000000 
0.875000 0.000000 0.000000 
0.937500 0.000000 0.000000 
0.937500 0.062500 0.000000 
0.875000 0.062500 0.000000 
0.937500 0.000000 0.000000 
1.000000 0.000000 0.000000 
1.000000 0.062500 0.000000 
0.937500 0.062500 0.000000 
0.000000 0.062500 0.000000 
0.062500 0.062500 0.000000 
0.062500 0.125000 0.000000 
0.000000 0.125000 0.000000 
0.062500 0.062500 0.000000 
0.125000 0.062500 0.000000 
0.125000 0.125000 0.000000 
0.062500 0.125000 0.000000 
0.125000 0.062500 0.000000 
0.187500 0.062500 0.000000 
0.187500 0.125000 0.000000 
0.125000 0.125000 0.000000 
0.187500 0.062500 0.000000 
0.250000 0.062500 0.000000 
0.250000 0.125000 0.000000 
0.187500 0.125000 0.000000 
0.250000 0.062500 0.000000 
0.312500 0.062500 0.000000 
0.312500 0.125000 0.000000 
0.250000 0.125000 0.000000 
0.312500 0.062500 0.000000 
0.375000 0.062500 0.000000 
0.375000 0.125000 0.000000 
0.312500 0.125000 0.000000 
0.375000 0.062500 0.000000 
0.437500 0.062500 0.000000 
0.437500 0.125000 0.000000 
0.375000 0.125000 0.000000 
0.437500 0.062500 0.000000 
0.500000 0.062500 0.000000 
0.500000 0.125000 0.000000 
0.437500 0.125000 0.000000 
0.500000 0.062500 0.000000 
0.562500 0.062500 0.000000 
0.562500 0.125000 0.000000 
0.500000 0.125000 0.000000 
0.562500 0.062500 0.000000 
0.625000 0.062500 0.000000 
0.625000 0.125000 0.000000 
0.562500 0.125000 0.000000 
0.625000 0.062500 0.000000 
0.687500 0.062500 0.000000 
0.687500 0.125000 0.000000 
0.625000 0.125000 0.000000 
0.687500 0.062500 0.000000 
0.750000 0.062500 0.000000 
0.750000 0.125000 0.000000 
0.687500 0.125000 0.000000 
0.750000 0.062500 0.000000 
0.812500 0.062500 0.000000 
0.812500 0.125000 0.000000 
0.750000 0.125000 0.000000 
0.812500 0.062500 0.000000 
0.875000 0.062500 0.000000 
0.875000 0.125000 0.000000 
0.812500 0.125000 0.000000 
0.875000 0.062500 0.000000 
0.937500 0.062500 0.000000 
0.937500 0.125000 0.000000 
0.875000 0.125000 0.000000 
0.937500 0.062500 0.000000 
1.000000 0.062500 0.000000 
1.000000 0.125000 0.000000 
0.937500 0.125000 0.000000 
0.000000 0.125000 0.000000 
0.062500 0.125000 0.000000 
0.062500 0.187500 0.000000 
0.000000 0.187500 0.000000 
0.062500 0.125000 0.000000 
0.125000 0.125000 0.000000 
0.125000 0.187500 0.000000 
0.062500 0.187500 0.000000 
0.125000 0.125000 0.000000 
0.187500 0.125000 0.000000 
0.187500 0.187500 0.000000 
0.125000 0.187500 0.000000 
0.187500 0.125000 0.000000 
0.250000 0.125000 0.000000 
0.250000 0.187500 0.000000 
0.187500 0.187500 0.000000 
0.250000 0.125000 0.000000 
0.312500 0.125000 0.000000 
0.312500 0.187500 0.000000 
0.250000 0.187500 0.000000 
0.312500 0.125000 0.000000 
0.375000 0.125000 0.000000 
0.375000 0.187500 0.000000 
0.312500 0.187500 0.000000 
0.375000 0.125000 0.000000 
0.437500 0.125000 0.000000 
0.437500 0.187500 0.000000 
0.375000 0.187500 0.000000 
0.437500 0.125000 0.000000 
0.500000 0.125000 0.000000 
0.500000 0.187500 0.000000 
0.437500 0.187500 0.000000 
0.500000 0.125000 0.000000 
0.562500 0.125000 0.000000 
0.562500 0.187500 0.000000 
0.500000 0.187500 0.000000 
0.562500 0.125000 0.000000 
0.625000 0.125000 0.000000 
0.625000 0.187500 0.000000 
0.562500 0.187500 0.000000 
0.625000 0.125000 0.000000 
0.687500 0.125000 0.000000 
0.687500 0.187500 0.000000 
0.625000 0.187500 0.000000 
0.687500 0.125000 0.000000 
0.750000 0.125000 0.000000 
0.750000 0.187500 0.000000 
0.687500 0.187500 0.000000 
0.750000 0.125000 0.000000 
0.812500 0.125000 0.000000 
0.812500 0.187500 0.000000 
0.750000 0.187500 0.000000 
0.812500 0.125000 0.000000 
0.875000 0.125000 0.000000 
0.875000 0.187500 0.000000 
0.812500 0.187500 0.000000 
0.875000 0.125000 0.000000 
0.937500 0.125000 0.000000 
0.937500 0.187500 0.000000 
0.875000 0.187500 0.000000 
0.937500 0.125000 0.000000 
1.000000 0.125000 0.000000 
1.000000 0.187500 0.000000 
0.937500 0.187500 0.000000 
0.000000 0.187500 0.000000 
0.062500 0.187500 0.000000 
0.062500 0.250000 0.000000 
0.000000 0.250000 0.000000 
0.062500 0.187500 0.000000 
0.125000 0.187500 0.000000 
0.125000 0.250000 0.000000 
0.062500 0.250000 0.000000 
0.125000 0.187500 0.000000 
0.187500 0.187500 0.000000 
0.187500 0.250000 0.000000 
0.125000 0.250000 0.000000 
0.187500 0.187500 0.000000 
0.250000 0.187500 0.000000 
0.250000 0.250000 0.000000 
0.187500 0.250000 0.000000 
0.250000 0.187500 0.000000 
0.312500 0.187500 0.000000 
0.312500 0.250000 0.000000 
0.250000 0.250000 0.000000 
0.312500 0.187500 0.000000 
0.375000 0.187500 0.000000 
0.375000 0.250000 0.000000 
0.312500 0.250000 0.000000 
0.375000 0.187500 0.000000 
0.437500 0.187500 0.000000 
0.437500 0.250000 0.000000 
0.375000 0.250000 0.000000 
0.437500 0.187500 0.000000 
0.500000 0.187500 0.000000 
0.500000 0.250000 0.000000 
0.437500 0.250000 0.000000 
0.500000 0.187500 0.000000 
0.562500 0.187500 0.000000 
0.562500 0.250000 0.000000 
0.500000 0.250000 0.000000 
0.562500 0.187500 0.000000 
0.625000 0.187500 0.000000 
0.625000 0.250000 0.000000 
0.562500 0.250000 0.000000 
0.625000 0.187500 0.000000 
0.687500 0.187500 0.000000 
0.687500 0.250000 0.000000 
0.625000 0.250000 0.000000 
0.687500 0.187500 0.000000 
0.750000 0.187500 0.000000 
0.750000 0.250000 0.000000 
0.687500 0.250000 0.000000 
0.750000 0.187500 0.000000 
0.812500 0.187500 0.000000 
0.812500 0.250000 0.000000 
0.750000 0.250000 0.000000 
0.812500 0.187500 0.000000 
0.875000 0.187500 0.000000 
0.875000 0.250000 0.000000 
0.812500 0.250000 0.000000 
0.875000 0.187500 0.000000 
0.937500 0.187500 0.000000 
0.937500 0.250000 0.000000 
0.875000 0.250000 0.000000 
0.937500 0.187500 0.000000 
1.000000 0.187500 0.000000 
1.000000 0.250000 0.000000 
0.937500 0.250000 0.000000 
0.000000 0.250000 0.000000 
0.062500 0.250000 0.000000 
0.062500 0.312500 0.000000 
0.000000 0.312500 0.000000 
0.062500 0.250000 0.000000 
0.125000 0.250000 0.000000 
0.125000 0.312500 0.000000 
0.062500 0.312500 0.000000 
0.125000 0.250000 0.000000 
0.187500 0.250000 0.000000 
0.187500 0.312500 0.000000 
0.125000 0.312500 0.000000 
0.187500 0.250000 0.000000 
0.250000 0.250000 0.000000 
0.250000 0.312500 0.000000 
0.187500 0.312500 0.000000 
0.250000 0.250000 0.000000 
0.312500 0.250000 0.000000 
0.312500 0.312500 0.000000 
0.250000 0.312500 0.000000 
0.312500 0.250000 0.000000 
0.375000 0.250000 0.000000 
0.375000 0.312500 0.000000 
0.312500 0.312500 0.000000 
0.375000 0.250000 0.000000 
0.437500 0.250000 0.000000 
0.437500 0.312500 0.000000 
0.375000 0.312500 0.000000 
0.437500 0.250000 0.000000 
0.500000 0.250000 0.000000 
0.500000 0.312500 0.000000 
0.437500 0.312500 0.000000 
0.500000 0.250000 0.000000 
0.562500 0.250000 0.000000 
0.562500 0.312500 0.000000 
0.500000 0.312500 0.000000 
0.562500 0.250000 0.000000 
0.625000 0.250000 0.000000 
0.625000 0.312500 0.000000 
0.562500 0.312500 0.000000 
0.625000 0.250000 0.000000 
0.687500 0.250000 0.000000 
0.687500 0.312500 0.000000 
0.625000 0.312500 0.000000 
0.687500 0.250000 0.000000 
0.750000 0.250000 0.000000 
0.750000 0.312500 0.000000 
0.687500 0.312500 0.000000 
0.750000 0.250000 0.000000 
0.812500 0.250000 0.000000 
0.812500 0.312500 0.000000 
0.750000 0.312500 0.000000 
0.812500 0.250000 0.000000 
0.875000 0.250000 0.000000 
0.875000 0.312500 0.000000 
0.812500 0.312500 0.000000 
0.875000 0.250000 0.000000 
0.937500 0.250000 0.000000 
0.937500 0.312500 0.000000 
0.875000 0.312500 0.000000 
0.937500 0.250000 0.000000 
1.000000 0.250000 0.000000 
1.000000 0.312500 0.000000 
0.937500 0.312500 0.000000 
0.000000 0.312500 0.000000 
0.062500 0.312500 0.000000 
0.062500 0.375000 0.000000 
0.000000 0.375000 0.000000 
0.062500 0.312500 0.000000 
0.125000 0.312500 0.000000 
0.125000 0.375000 0.000000 
0.062500 0.375000 0.000000 
0.125000 0.312500 0.000000 
0.187500 0.312500 0.000000 
0.187500 0.375000 0.000000 
0.125000 0.375000 0.000000 
0.187500 0.312500 0.000000 
0.250000 0.312500 0.000000 
0.250000 0.375000 0.000000 
0.187500 0.375000 0.000000 
0.250000 0.312500 0.000000 
0.312500 0.312500 0.000000 
0.312500 0.375000 0.000000 
0.250000 0.375000 0.000000 
0.312500 0.312500 0.000000 
0.375000 0.312500 0.000000 
0.375000 0.375000 0.000000 
0.312500 0.375000 0.000000 
0.375000 0.312500 0.000000 
0.437500 0.312500 0.000000 
0.437500 0.375000 0.000000 
0.375000 0.375000 0.000000 
0.437500 0.312500 0.000000 
0.500000 0.312500 0.000000 
0.500000 0.375000 0.000000 
0.437500 0.375000 0.000000 
0.500000 0.312500 0.000000 
[...]
CELL_DATA 256
FIELD FieldData 1
material 1 256 int
1
1
1
1
1
1
1
1
1
1
1
1
1
1
1
1
1
1
1
1
1
1
1
1
1
1
1
1
1
1
1
1
1
1
1
1
1
1
1
1
1
1
1
1
1
1
1
1
1
1
1
1
1
1
1
1
1
1
1
1
1
1
1
1
1
1
1
1
1
1
1
1
1
1
1
1
1
1
1
1
1
1
1
1
1
1
1
1
1
1
1
1
1
1
1
1
1
1
1
1
1
1
1
1
1
1
1
1
1
1
1
1
1
1
1
1
1
1
1
1
1
1
1
1
1
1
1
1
1
1
1
1
1
1
1
1
1
1
1
1
1
1
1
1
1
1
1
1
1
1
1
1
1
1
1
1
1
1
1
1
1
1
1
1
1
1
1
1
1
1
1
1
1
1
1
1
1
1
1
1
1
1
1
1
1
1
1
1
1
1
1
1
1
1
1
1
1
1
1
1
1
1
1
1
1
1
1
1
1
1
1
1
1
1
1
1
1
1
1
1
1
1
1
1
1
1
1
1
1
1
1
1
1
1
1
1
1
1
1
1
1
1
1
1
1
1
1
1
1
1
1
1
1
1
1
1
POINT_DATA 1024 SCALARS flux_g1 double 
LOOKUP_TABLE   default 
1.407530
1.182936
1.182936
1.407530
1.177345
0.989481
0.989481
1.177345
0.984805
0.827663
0.827663
0.984805
0.823752
0.692309
0.692309
0.823752
0.689037
0.579090
0.579090
0.689037
0.576354
0.484387
0.484385
0.576354
0.482098
0.405169
0.405172
0.482092
0.403248
0.338918
0.338953
0.403257
0.337328
0.283528
0.283431
0.337418
0.282249
0.236988
0.236571
0.282051
0.235748
0.197851
0.198616
0.234917
0.196452
0.166707
0.170356
0.197568
0.166142
0.143045
0.143712
0.171745
0.144409
0.118715
0.104400
0.146322
0.120471
0.083916
0.053615
0.104243
0.083287
0.042698
0.012149
0.049927
1.407530
1.182936
1.182936
1.407530
1.177345
0.989481
0.989481
1.177345
0.984805
0.827663
0.827663
0.984805
0.823752
0.692309
0.692309
0.823752
0.689037
0.579090
0.579089
0.689038
0.576354
0.484385
0.484385
0.576349
0.482090
0.405175
0.405210
0.482091
0.403266
0.338957
0.338892
0.403361
0.337426
0.283379
0.282903
0.337288
0.281942
0.236556
0.237201
0.280961
0.234882
0.199043
0.203244
0.235813
0.198257
0.170769
0.172093
0.204831
0.172392
0.142258
0.125600
0.175411
0.144505
0.100853
0.064188
0.125523
0.100140
0.051005
0.013901
0.059622
0.047364
0.012728
-0.006667
0.009322
1.407530
1.182936
1.182936
1.407530
1.177345
0.989481
0.989481
1.177345
0.984805
0.827663
0.827663
0.984805
0.823752
0.692309
0.692309
0.823752
0.689038
0.579089
0.579087
0.689035
0.576348
0.484387
0.484417
0.576342
0.482097
0.405216
0.405189
0.482188
0.403378
0.338843
0.338327
0.403319
0.337178
0.282856
0.283315
0.336071
0.280867
0.237660
0.242421
0.281490
0.236576
0.203818
0.206048
0.244200
0.205734
0.170467
0.151180
0.210269
0.173351
0.121260
0.076864
0.151242
0.120461
0.060924
0.015810
0.071195
0.056418
0.014650
-0.008395
0.010194
0.010672
-0.003824
-0.006790
-0.010113
1.407530
1.182936
1.182936
1.407530
1.177345
0.989481
0.989481
1.177345
0.984805
0.827663
0.827663
0.984805
0.823752
0.692308
0.692306
0.823751
0.689034
0.579088
0.579109
0.689024
0.576345
0.484425
0.484436
0.576419
0.482212
0.405148
0.404628
0.482243
0.403219
0.338247
0.338446
0.402034
0.335905
0.283787
0.289073
0.336067
0.282307
0.243198
0.246648
0.291012
0.245436
0.204261
0.182073
0.252029
0.207971
0.145868
0.092071
0.182364
0.144987
0.072769
0.017843
0.085007
0.067174
0.016782
-0.010556
0.010948
0.011942
-0.004849
-0.007788
-0.012476
-0.006256
-0.004661
-0.000842
-0.006959
1.407530
1.182936
1.182936
1.407530
1.177345
0.989481
0.989481
1.177345
0.984805
0.827663
0.827662
0.984805
0.823751
0.692306
0.692317
0.823742
0.689024
0.579118
0.579157
0.689072
0.576446
0.484408
0.483929
0.576564
0.482165
0.404513
0.404386
0.480986
0.401787
0.338904
0.344612
0.401320
0.336901
0.290097
0.295159
0.346633
0.292674
0.244736
0.219422
0.302026
0.249522
0.175569
0.110327
0.220081
0.174624
0.086911
0.019938
0.101488
0.079942
0.019112
-0.013249
0.011463
0.013223
-0.006121
-0.008851
-0.015354
-0.007677
-0.005268
-0.000627
-0.007737
-0.004735
-0.000719
0.001074
0.000091
1.407530
1.182936
1.182936
1.407530
1.177345
0.989481
0.989480
1.177345
0.984805
0.827661
0.827664
0.984799
0.823740
0.692324
0.692376
0.823758
0.689097
0.579145
0.578762
0.689278
0.576521
0.483789
0.483294
0.575467
0.480660
0.404791
0.410715
0.479402
0.402110
0.345923
0.353062
0.412669
0.348827
0.293191
0.264632
0.361835
0.299386
0.211461
0.132267
0.265873
0.210486
0.103795
0.021988
0.121151
0.095076
0.021604
-0.016598
0.011555
0.014441
-0.007691
-0.009942
-0.018840
-0.009374
-0.005886
-0.000300
-0.008463
-0.005175
-0.000595
0.001240
0.000486
-0.000147
0.000560
0.000247
0.001178
1.407530
1.182936
1.182936
1.407530
1.177346
0.989480
0.989479
1.177344
0.984797
0.827667
0.827712
0.984794
0.823775
0.692378
0.692137
0.823969
0.689275
0.578614
0.577771
0.688488
0.575081
0.483596
0.489395
0.572930
0.480053
0.412342
0.422075
0.491013
0.415503
0.351160
0.319439
0.433290
0.359207
0.254897
0.158668
0.321594
0.253959
0.123948
0.023807
0.144604
0.112986
0.024188
-0.020745
0.010951
0.015481
-0.009611
-0.010996
-0.023027
-0.011378
-0.006478
0.000166
-0.009059
-0.005548
-0.000408
0.001392
0.000995
0.000066
0.000633
0.000188
0.001266
0.000604
0.000135
-0.000116
0.000073
1.407530
1.182936
1.182935
1.407530
1.177343
0.989480
0.989503
1.177334
0.984801
0.827721
0.827632
0.984947
0.824002
0.692007
0.690937
0.823601
0.688091
0.577919
0.583086
0.685095
0.573319
0.491329
0.504159
0.583915
0.494576
0.420440
0.385998
0.518484
0.430937
0.307559
0.190499
0.389594
0.306778
0.147999
0.025098
0.172567
0.134134
0.026739
-0.025848
0.009237
0.016168
-0.011933
-0.011905
-0.027997
-0.013702
-0.006992
0.000790
-0.009408
-0.005800
-0.000150
0.001507
0.001621
0.000332
0.000689
0.000107
0.001305
0.000627
0.000101
-0.000128
-0.000006
0.000046
-0.000048
-0.000018
-0.000117
1.407530
1.182935
1.182939
1.407526
1.177334
0.989511
0.989525
1.177396
0.984994
0.827549
0.826501
0.984997
0.823270
0.690897
0.694785
0.819763
0.685082
0.585243
0.601498
0.694097
0.588222
0.503103
0.466997
0.619737
0.516856
0.371555
0.228981
0.472887
0.371144
0.176696
0.025373
0.205896
0.159025
0.029042
-0.032074
0.005795
0.016242
-0.014697
-0.012507
-0.033794
-0.016332
-0.007346
0.001580
-0.009347
-0.005855
0.000180
0.001554
0.002346
0.000640
0.000716
0.000008
0.001270
0.000619
0.000059
-0.000131
-0.000092
0.000009
-0.000051
-0.000008
-0.000111
-0.000046
-0.000007
0.000009
0.000001
1.407525
1.182942
1.182970
1.407530
1.177429
0.989498
0.988794
1.177657
0.984815
0.826298
0.828274
0.981541
0.819251
0.696953
0.716430
0.824986
0.698991
0.601479
0.565804
0.739447
0.619578
0.449566
0.275700
0.575422
0.449903
0.210925
0.023833
0.245596
0.188183
0.030748
-0.039560
-0.000319
0.015316
-0.017906
-0.012555
-0.040360
-0.019191
-0.007431
0.002516
-0.008660
-0.005619
0.000571
0.001498
0.003119
0.000968
0.000700
-0.000101
0.001134
0.000569
0.000013
-0.000120
-0.000176
-0.000029
-0.000048
0.000003
-0.000094
-0.000041
-0.000003
0.000008
0.000009
0.000000
0.000003
-0.000000
0.000006
1.407537
1.182972
1.182763
1.407684
1.177642
0.988551
0.988470
1.175639
0.980605
0.830064
0.851314
0.981217
0.829953
0.718047
0.686624
0.879730
0.741949
0.545061
0.332806
0.702505
0.546835
0.251735
0.019149
0.292847
0.222091
0.031282
-0.048336
-0.010562
0.012830
-0.021483
-0.011701
-0.047431
-0.022092
-0.007102
0.003520
-0.007078
-0.004990
0.000988
0.001300
0.003833
0.001271
0.000626
-0.000201
0.000882
0.000471
-0.000032
-0.000096
-0.000240
-0.000059
-0.000041
0.000011
-0.000067
-0.000031
0.000001
0.000006
0.000013
0.000003
0.000002
-0.000001
0.000004
0.000002
-0.000000
-0.000000
-0.000001
1.407727
1.182649
1.181689
1.407378
1.174704
0.989385
1.008458
1.169719
0.985138
0.855155
0.834564
1.041563
0.886696
0.662647
0.403444
0.861534
0.667182
0.300362
0.009007
0.349017
0.261032
0.029705
-0.058137
-0.027235
0.007975
-0.025177
-0.009485
-0.054302
-0.024647
-0.006188
0.004417
-0.004331
-0.003876
0.001360
0.000940
0.004304
0.001479
0.000490
-0.000267
0.000519
0.000330
-0.000065
-0.000060
-0.000264
-0.000076
-0.000028
0.000014
-0.000034
-0.000019
0.000003
0.000003
0.000014
0.000004
0.000001
-0.000001
0.000002
0.000001
-0.000000
-0.000000
-0.000001
-0.000000
-0.000000
0.000000
-0.000000
1.407033
1.181675
1.191225
1.401237
1.170897
1.014377
1.014922
1.223096
1.055307
0.808664
0.492878
1.063291
0.818732
0.358247
-0.010861
0.415659
0.304709
0.024459
-0.067932
-0.054076
-0.000352
-0.028376
-0.005407
-0.059360
-0.026117
-0.004544
0.004884
-0.000286
-0.002262
0.001572
0.000445
0.004259
0.001497
0.000302
-0.000271
0.000103
0.000165
-0.000076
-0.000022
-0.000232
-0.000073
-0.000015
0.000013
-0.000005
-0.000008
0.000003
0.000001
0.000011
0.000003
0.000001
-0.000001
0.000000
0.000000
-0.000000
-0.000000
-0.000000
-0.000000
-0.000000
0.000000
0.000000
-0.000000
0.000000
0.000000
0.000000
1.399758
1.195999
1.227410
1.419396
1.244474
0.992113
0.612321
1.323844
1.014527
0.427039
-0.049230
0.494433
0.351134
0.012911
-0.074656
-0.097320
-0.013472
-0.029723
0.000727
-0.059131
-0.025198
-0.002188
0.004449
0.004642
-0.000343
0.001477
-0.000060
0.003409
0.001241
0.000106
-0.000200
-0.000241
0.000020
-0.000062
0.000006
-0.000148
-0.000051
-0.000004
0.000008
0.000012
-0.000000
0.000002
-0.000000
0.000006
0.000002
0.000000
-0.000000
-0.000001
-0.000000
-0.000000
0.000000
-0.000000
-0.000000
-0.000000
0.000000
0.000000
0.000000
0.000000
-0.000000
0.000000
0.000000
-0.000000
-0.000000
-0.000000
1.435035
1.223761
0.799111
1.658458
1.281652
0.508505
-0.127825
0.586767
0.392724
-0.009332
-0.069521
-0.167113
-0.031975
-0.026386
0.007538
-0.046534
-0.019865
0.000348
0.002725
0.008543
0.001256
0.000982
-0.000337
0.001728
0.000717
-0.000026
-0.000085
-0.000344
-0.000053
-0.000032
0.000013
-0.000051
-0.000022
0.000001
0.000002
0.000012
0.000002
0.000001
-0.000000
0.000001
0.000001
-0.000000
-0.000000
-0.000000
-0.000000
-0.000000
0.000000
-0.000000
-0.000000
0.000000
0.000000
0.000000
0.000000
0.000000
-0.000000
0.000000
0.000000
-0.000000
-0.000000
-0.000000
-0.000000
-0.000000
0.000000
-0.000000
1.706044
0.603987
-0.324627
0.691980
0.395690
-0.046925
-0.027109
-0.269819
-0.049504
-0.013535
0.008391
-0.010896
-0.008467
0.001418
0.000473
0.006726
0.001372
0.000295
-0.000212
0.000119
0.000174
-0.000040
-0.000007
-0.000164
-0.000037
-0.000006
0.000005
0.000001
-0.000003
0.000001
0.000000
0.000004
0.000001
0.000000
-0.000000
-0.000000
0.000000
-0.000000
0.000000
-0.000000
-0.000000
-0.000000
0.000000
0.000000
-0.000000
0.000000
-0.000000
0.000000
0.000000
0.000000
-0.000000
-0.000000
0.000000
-0.000000
0.000000
-0.000000
-0.000000
-0.000000
0.000000
0.000000
0.000000
0.000000
-0.000000
0.000000
 
