# vtk DataFile Version 3.0 
Date: 3/9/2016   Time: 10:3
ASCII 
DATASET UNSTRUCTURED_GRID 
 
POINTS 64 float 
0.000000 0.000000 0.000000 
0.250000 0.000000 0.000000 
0.250000 0.250000 0.000000 
0.000000 0.250000 0.000000 
0.250000 0.000000 0.000000 
0.500000 0.000000 0.000000 
0.500000 0.250000 0.000000 
0.250000 0.250000 0.000000 
0.500000 0.000000 0.000000 
0.750000 0.000000 0.000000 
0.750000 0.250000 0.000000 
0.500000 0.250000 0.000000 
0.750000 0.000000 0.000000 
1.000000 0.000000 0.000000 
1.000000 0.250000 0.000000 
0.750000 0.250000 0.000000 
0.000000 0.250000 0.000000 
0.250000 0.250000 0.000000 
0.250000 0.500000 0.000000 
0.000000 0.500000 0.000000 
0.250000 0.250000 0.000000 
0.500000 0.250000 0.000000 
0.500000 0.500000 0.000000 
0.250000 0.500000 0.000000 
0.500000 0.250000 0.000000 
0.750000 0.250000 0.000000 
0.750000 0.500000 0.000000 
0.500000 0.500000 0.000000 
0.750000 0.250000 0.000000 
1.000000 0.250000 0.000000 
1.000000 0.500000 0.000000 
0.750000 0.500000 0.000000 
0.000000 0.500000 0.000000 
0.250000 0.500000 0.000000 
0.250000 0.750000 0.000000 
0.000000 0.750000 0.000000 
0.250000 0.500000 0.000000 
0.500000 0.500000 0.000000 
0.500000 0.750000 0.000000 
0.250000 0.750000 0.000000 
0.500000 0.500000 0.000000 
0.750000 0.500000 0.000000 
0.750000 0.750000 0.000000 
0.500000 0.750000 0.000000 
0.750000 0.500000 0.000000 
1.000000 0.500000 0.000000 
1.000000 0.750000 0.000000 
0.750000 0.750000 0.000000 
0.000000 0.750000 0.000000 
0.250000 0.750000 0.000000 
0.250000 1.000000 0.000000 
0.000000 1.000000 0.000000 
0.250000 0.750000 0.000000 
0.500000 0.750000 0.000000 
0.500000 1.000000 0.000000 
0.250000 1.000000 0.000000 
0.500000 0.750000 0.000000 
0.750000 0.750000 0.000000 
0.750000 1.000000 0.000000 
0.500000 1.000000 0.000000 
0.750000 0.750000 0.000000 
1.000000 0.750000 0.000000 
1.000000 1.000000 0.000000 
0.750000 1.000000 0.000000 
CELLS 16 80 
 4 0 1 2 3  
 4 4 5 6 7  
 4 8 9 10 11  
 4 12 13 14 15  
 4 16 17 18 19  
 4 20 21 22 23  
 4 24 25 26 27  
 4 28 29 30 31  
 4 32 33 34 35  
 4 36 37 38 39  
 4 40 41 42 43  
 4 44 45 46 47  
 4 48 49 50 51  
 4 52 53 54 55  
 4 56 57 58 59  
 4 60 61 62 63  
 
CELL_TYPES 16
7
7
7
7
7
7
7
7
7
7
7
7
7
7
7
7
CELL_DATA 16
FIELD FieldData 1
material 1 16 int
1
1
1
1
1
1
1
1
1
1
1
1
1
1
1
1
POINT_DATA 64 SCALARS flux_g1 double 
LOOKUP_TABLE   default 
0.571189
-0.136898
-0.136879
0.571401
-0.055280
0.013250
0.013247
-0.055339
0.005349
-0.001282
-0.001282
0.005362
-0.000517
0.000124
0.000124
-0.000520
0.571763
-0.136960
-0.137043
0.569569
-0.055452
0.013279
0.013275
-0.054952
0.005386
-0.001290
-0.001284
0.005291
-0.000524
0.000126
0.000124
-0.000508
0.565845
-0.136058
-0.136286
0.588505
-0.054052
0.012992
0.013214
-0.057995
0.005133
-0.001231
-0.001290
0.005743
-0.000485
0.000116
0.000127
-0.000571
0.626771
-0.147924
-0.134758
0.392990
-0.064471
0.015411
0.012820
-0.037085
0.006616
-0.001600
-0.001218
0.003491
-0.000677
0.000166
0.000115
-0.000328
 
