# vtk DataFile Version 3.0 
Date: 3/25/2016   Time: 19:11
ASCII 
DATASET UNSTRUCTURED_GRID 
 
POINTS 100 float 
0.000000 0.000000 0.000000 
0.200000 0.000000 0.000000 
0.200000 0.200000 0.000000 
0.000000 0.200000 0.000000 
0.200000 0.000000 0.000000 
0.400000 0.000000 0.000000 
0.400000 0.200000 0.000000 
0.200000 0.200000 0.000000 
0.400000 0.000000 0.000000 
0.600000 0.000000 0.000000 
0.600000 0.200000 0.000000 
0.400000 0.200000 0.000000 
0.600000 0.000000 0.000000 
0.800000 0.000000 0.000000 
0.800000 0.200000 0.000000 
0.600000 0.200000 0.000000 
0.800000 0.000000 0.000000 
1.000000 0.000000 0.000000 
1.000000 0.200000 0.000000 
0.800000 0.200000 0.000000 
0.000000 0.200000 0.000000 
0.200000 0.200000 0.000000 
0.200000 0.400000 0.000000 
0.000000 0.400000 0.000000 
0.200000 0.200000 0.000000 
0.400000 0.200000 0.000000 
0.400000 0.400000 0.000000 
0.200000 0.400000 0.000000 
0.400000 0.200000 0.000000 
0.600000 0.200000 0.000000 
0.600000 0.400000 0.000000 
0.400000 0.400000 0.000000 
0.600000 0.200000 0.000000 
0.800000 0.200000 0.000000 
0.800000 0.400000 0.000000 
0.600000 0.400000 0.000000 
0.800000 0.200000 0.000000 
1.000000 0.200000 0.000000 
1.000000 0.400000 0.000000 
0.800000 0.400000 0.000000 
0.000000 0.400000 0.000000 
0.200000 0.400000 0.000000 
0.200000 0.600000 0.000000 
0.000000 0.600000 0.000000 
0.200000 0.400000 0.000000 
0.400000 0.400000 0.000000 
0.400000 0.600000 0.000000 
0.200000 0.600000 0.000000 
0.400000 0.400000 0.000000 
0.600000 0.400000 0.000000 
0.600000 0.600000 0.000000 
0.400000 0.600000 0.000000 
0.600000 0.400000 0.000000 
0.800000 0.400000 0.000000 
0.800000 0.600000 0.000000 
0.600000 0.600000 0.000000 
0.800000 0.400000 0.000000 
1.000000 0.400000 0.000000 
1.000000 0.600000 0.000000 
0.800000 0.600000 0.000000 
0.000000 0.600000 0.000000 
0.200000 0.600000 0.000000 
0.200000 0.800000 0.000000 
0.000000 0.800000 0.000000 
0.200000 0.600000 0.000000 
0.400000 0.600000 0.000000 
0.400000 0.800000 0.000000 
0.200000 0.800000 0.000000 
0.400000 0.600000 0.000000 
0.600000 0.600000 0.000000 
0.600000 0.800000 0.000000 
0.400000 0.800000 0.000000 
0.600000 0.600000 0.000000 
0.800000 0.600000 0.000000 
0.800000 0.800000 0.000000 
0.600000 0.800000 0.000000 
0.800000 0.600000 0.000000 
1.000000 0.600000 0.000000 
1.000000 0.800000 0.000000 
0.800000 0.800000 0.000000 
0.000000 0.800000 0.000000 
0.200000 0.800000 0.000000 
0.200000 1.000000 0.000000 
0.000000 1.000000 0.000000 
0.200000 0.800000 0.000000 
0.400000 0.800000 0.000000 
0.400000 1.000000 0.000000 
0.200000 1.000000 0.000000 
0.400000 0.800000 0.000000 
0.600000 0.800000 0.000000 
0.600000 1.000000 0.000000 
0.400000 1.000000 0.000000 
0.600000 0.800000 0.000000 
0.800000 0.800000 0.000000 
0.800000 1.000000 0.000000 
0.600000 1.000000 0.000000 
0.800000 0.800000 0.000000 
1.000000 0.800000 0.000000 
1.000000 1.000000 0.000000 
0.800000 1.000000 0.000000 
CELLS 25 125 
 4 0 1 2 3  
 4 4 5 6 7  
 4 8 9 10 11  
 4 12 13 14 15  
 4 16 17 18 19  
 4 20 21 22 23  
 4 24 25 26 27  
 4 28 29 30 31  
 4 32 33 34 35  
 4 36 37 38 39  
 4 40 41 42 43  
 4 44 45 46 47  
 4 48 49 50 51  
 4 52 53 54 55  
 4 56 57 58 59  
 4 60 61 62 63  
 4 64 65 66 67  
 4 68 69 70 71  
 4 72 73 74 75  
 4 76 77 78 79  
 4 80 81 82 83  
 4 84 85 86 87  
 4 88 89 90 91  
 4 92 93 94 95  
 4 96 97 98 99  
 
CELL_TYPES 25
7
7
7
7
7
7
7
7
7
7
7
7
7
7
7
7
7
7
7
7
7
7
7
7
7
CELL_DATA 25
FIELD FieldData 1
material 1 25 int
1
1
1
1
1
1
1
1
1
1
1
1
1
1
1
1
1
1
1
1
1
1
1
1
1
POINT_DATA 100 SCALARS flux_g1 double 
LOOKUP_TABLE   default 
0.00000000e+00
0.00000000e+00
0.00000000e+00
0.00000000e+00
0.00000000e+00
0.00000000e+00
0.00000000e+00
0.00000000e+00
0.00000000e+00
0.00000000e+00
0.00000000e+00
0.00000000e+00
0.00000000e+00
0.00000000e+00
0.00000000e+00
0.00000000e+00
0.00000000e+00
0.00000000e+00
0.00000000e+00
0.00000000e+00
1.00000000e+00
1.00000000e+00
1.00000000e+00
1.00000000e+00
1.00000000e+00
1.00000000e+00
1.00000000e+00
1.00000000e+00
1.00000000e+00
1.00000000e+00
1.00000000e+00
1.00000000e+00
1.00000000e+00
1.00000000e+00
1.00000000e+00
1.00000000e+00
1.00000000e+00
1.00000000e+00
1.00000000e+00
1.00000000e+00
0.00000000e+00
0.00000000e+00
0.00000000e+00
0.00000000e+00
0.00000000e+00
0.00000000e+00
0.00000000e+00
0.00000000e+00
0.00000000e+00
0.00000000e+00
0.00000000e+00
0.00000000e+00
0.00000000e+00
0.00000000e+00
0.00000000e+00
0.00000000e+00
0.00000000e+00
0.00000000e+00
0.00000000e+00
0.00000000e+00
0.00000000e+00
0.00000000e+00
0.00000000e+00
0.00000000e+00
0.00000000e+00
0.00000000e+00
0.00000000e+00
0.00000000e+00
0.00000000e+00
0.00000000e+00
0.00000000e+00
0.00000000e+00
0.00000000e+00
0.00000000e+00
0.00000000e+00
0.00000000e+00
0.00000000e+00
0.00000000e+00
0.00000000e+00
0.00000000e+00
0.00000000e+00
0.00000000e+00
0.00000000e+00
0.00000000e+00
0.00000000e+00
0.00000000e+00
0.00000000e+00
0.00000000e+00
0.00000000e+00
0.00000000e+00
0.00000000e+00
0.00000000e+00
0.00000000e+00
0.00000000e+00
0.00000000e+00
0.00000000e+00
0.00000000e+00
0.00000000e+00
0.00000000e+00
0.00000000e+00
 
