# vtk DataFile Version 3.0 
Date: 6/24/2016   Time: 20:5
ASCII 
DATASET UNSTRUCTURED_GRID 
 
POINTS 40 float 
0.000000 0.000000 0.000000 
0.100000 0.000000 0.000000 
0.100000 1.000000 0.000000 
0.000000 1.000000 0.000000 
0.100000 0.000000 0.000000 
0.200000 0.000000 0.000000 
0.200000 1.000000 0.000000 
0.100000 1.000000 0.000000 
0.200000 0.000000 0.000000 
0.300000 0.000000 0.000000 
0.300000 1.000000 0.000000 
0.200000 1.000000 0.000000 
0.300000 0.000000 0.000000 
0.400000 0.000000 0.000000 
0.400000 1.000000 0.000000 
0.300000 1.000000 0.000000 
0.400000 0.000000 0.000000 
0.500000 0.000000 0.000000 
0.500000 1.000000 0.000000 
0.400000 1.000000 0.000000 
0.500000 0.000000 0.000000 
0.600000 0.000000 0.000000 
0.600000 1.000000 0.000000 
0.500000 1.000000 0.000000 
0.600000 0.000000 0.000000 
0.700000 0.000000 0.000000 
0.700000 1.000000 0.000000 
0.600000 1.000000 0.000000 
0.700000 0.000000 0.000000 
0.800000 0.000000 0.000000 
0.800000 1.000000 0.000000 
0.700000 1.000000 0.000000 
0.800000 0.000000 0.000000 
0.900000 0.000000 0.000000 
0.900000 1.000000 0.000000 
0.800000 1.000000 0.000000 
0.900000 0.000000 0.000000 
1.000000 0.000000 0.000000 
1.000000 1.000000 0.000000 
0.900000 1.000000 0.000000 
CELLS 10 50 
 4 0 1 2 3  
 4 4 5 6 7  
 4 8 9 10 11  
 4 12 13 14 15  
 4 16 17 18 19  
 4 20 21 22 23  
 4 24 25 26 27  
 4 28 29 30 31  
 4 32 33 34 35  
 4 36 37 38 39  
 
CELL_TYPES 10
7
7
7
7
7
7
7
7
7
7
CELL_DATA 10
FIELD FieldData 1
material 1 10 int
1
1
1
1
1
1
1
1
1
1
POINT_DATA 40 SCALARS flux_g1 double 
LOOKUP_TABLE   default 
1.99735915e+00
1.79776188e+00
1.79776188e+00
1.99735915e+00
1.79774731e+00
1.59830738e+00
1.59830738e+00
1.79774731e+00
1.59830700e+00
1.39887125e+00
1.39887125e+00
1.59830700e+00
1.39887124e+00
1.19943562e+00
1.19943562e+00
1.39887124e+00
1.19943562e+00
1.00000000e+00
1.00000000e+00
1.19943562e+00
1.00000000e+00
8.00564383e-01
8.00564383e-01
1.00000000e+00
8.00564382e-01
6.01128760e-01
6.01128760e-01
8.00564382e-01
6.01128749e-01
4.01692999e-01
4.01692999e-01
6.01128749e-01
4.01692620e-01
2.02252693e-01
2.02252693e-01
4.01692620e-01
2.02238117e-01
2.64084700e-03
2.64084700e-03
2.02238117e-01
 
