# vtk DataFile Version 3.0 
Date: 6/22/2016   Time: 16:59
ASCII 
DATASET UNSTRUCTURED_GRID 
 
POINTS 40 float 
0.000000 0.000000 0.000000 
0.100000 0.000000 0.000000 
0.100000 1.000000 0.000000 
0.000000 1.000000 0.000000 
0.100000 0.000000 0.000000 
0.200000 0.000000 0.000000 
0.200000 1.000000 0.000000 
0.100000 1.000000 0.000000 
0.200000 0.000000 0.000000 
0.300000 0.000000 0.000000 
0.300000 1.000000 0.000000 
0.200000 1.000000 0.000000 
0.300000 0.000000 0.000000 
0.400000 0.000000 0.000000 
0.400000 1.000000 0.000000 
0.300000 1.000000 0.000000 
0.400000 0.000000 0.000000 
0.500000 0.000000 0.000000 
0.500000 1.000000 0.000000 
0.400000 1.000000 0.000000 
0.500000 0.000000 0.000000 
0.600000 0.000000 0.000000 
0.600000 1.000000 0.000000 
0.500000 1.000000 0.000000 
0.600000 0.000000 0.000000 
0.700000 0.000000 0.000000 
0.700000 1.000000 0.000000 
0.600000 1.000000 0.000000 
0.700000 0.000000 0.000000 
0.800000 0.000000 0.000000 
0.800000 1.000000 0.000000 
0.700000 1.000000 0.000000 
0.800000 0.000000 0.000000 
0.900000 0.000000 0.000000 
0.900000 1.000000 0.000000 
0.800000 1.000000 0.000000 
0.900000 0.000000 0.000000 
1.000000 0.000000 0.000000 
1.000000 1.000000 0.000000 
0.900000 1.000000 0.000000 
CELLS 10 50 
 4 0 1 2 3  
 4 4 5 6 7  
 4 8 9 10 11  
 4 12 13 14 15  
 4 16 17 18 19  
 4 20 21 22 23  
 4 24 25 26 27  
 4 28 29 30 31  
 4 32 33 34 35  
 4 36 37 38 39  
 
CELL_TYPES 10
7
7
7
7
7
7
7
7
7
7
CELL_DATA 10
FIELD FieldData 1
material 1 10 int
1
1
1
1
1
1
1
1
1
1
POINT_DATA 40 SCALARS flux_g1 double 
LOOKUP_TABLE   default 
2.70798377e-02
1.36699824e-02
1.36699824e-02
2.70798377e-02
1.24680632e-02
1.10057826e-02
1.10057826e-02
1.24680632e-02
1.09973890e-02
9.62347459e-03
9.62347459e-03
1.09973890e-02
9.62330211e-03
8.25127306e-03
8.25127306e-03
9.62330211e-03
8.25126803e-03
6.87929473e-03
6.87929473e-03
8.25126803e-03
6.87929456e-03
5.50732307e-03
5.50732307e-03
6.87929456e-03
5.50732306e-03
4.13535161e-03
4.13535161e-03
5.50732306e-03
4.13535153e-03
2.76337919e-03
2.76337919e-03
4.13535153e-03
2.76337661e-03
1.39137582e-03
1.39137582e-03
2.76337661e-03
1.39127757e-03
1.82172437e-05
1.82172437e-05
1.39127757e-03
 
