# vtk DataFile Version 3.0 
Date: 5/30/2016   Time: 3:13
ASCII 
DATASET UNSTRUCTURED_GRID 
 
POINTS 160 float 
0.000000 0.000000 0.000000 
0.025000 0.000000 0.000000 
0.050000 0.000000 0.000000 
0.050000 0.500000 0.000000 
0.050000 1.000000 0.000000 
0.025000 1.000000 0.000000 
0.000000 1.000000 0.000000 
0.000000 0.500000 0.000000 
0.050000 0.000000 0.000000 
0.075000 0.000000 0.000000 
0.100000 0.000000 0.000000 
0.100000 0.500000 0.000000 
0.100000 1.000000 0.000000 
0.075000 1.000000 0.000000 
0.050000 1.000000 0.000000 
0.050000 0.500000 0.000000 
0.100000 0.000000 0.000000 
0.125000 0.000000 0.000000 
0.150000 0.000000 0.000000 
0.150000 0.500000 0.000000 
0.150000 1.000000 0.000000 
0.125000 1.000000 0.000000 
0.100000 1.000000 0.000000 
0.100000 0.500000 0.000000 
0.150000 0.000000 0.000000 
0.175000 0.000000 0.000000 
0.200000 0.000000 0.000000 
0.200000 0.500000 0.000000 
0.200000 1.000000 0.000000 
0.175000 1.000000 0.000000 
0.150000 1.000000 0.000000 
0.150000 0.500000 0.000000 
0.200000 0.000000 0.000000 
0.225000 0.000000 0.000000 
0.250000 0.000000 0.000000 
0.250000 0.500000 0.000000 
0.250000 1.000000 0.000000 
0.225000 1.000000 0.000000 
0.200000 1.000000 0.000000 
0.200000 0.500000 0.000000 
0.250000 0.000000 0.000000 
0.275000 0.000000 0.000000 
0.300000 0.000000 0.000000 
0.300000 0.500000 0.000000 
0.300000 1.000000 0.000000 
0.275000 1.000000 0.000000 
0.250000 1.000000 0.000000 
0.250000 0.500000 0.000000 
0.300000 0.000000 0.000000 
0.325000 0.000000 0.000000 
0.350000 0.000000 0.000000 
0.350000 0.500000 0.000000 
0.350000 1.000000 0.000000 
0.325000 1.000000 0.000000 
0.300000 1.000000 0.000000 
0.300000 0.500000 0.000000 
0.350000 0.000000 0.000000 
0.375000 0.000000 0.000000 
0.400000 0.000000 0.000000 
0.400000 0.500000 0.000000 
0.400000 1.000000 0.000000 
0.375000 1.000000 0.000000 
0.350000 1.000000 0.000000 
0.350000 0.500000 0.000000 
0.400000 0.000000 0.000000 
0.425000 0.000000 0.000000 
0.450000 0.000000 0.000000 
0.450000 0.500000 0.000000 
0.450000 1.000000 0.000000 
0.425000 1.000000 0.000000 
0.400000 1.000000 0.000000 
0.400000 0.500000 0.000000 
0.450000 0.000000 0.000000 
0.475000 0.000000 0.000000 
0.500000 0.000000 0.000000 
0.500000 0.500000 0.000000 
0.500000 1.000000 0.000000 
0.475000 1.000000 0.000000 
0.450000 1.000000 0.000000 
0.450000 0.500000 0.000000 
0.500000 0.000000 0.000000 
0.525000 0.000000 0.000000 
0.550000 0.000000 0.000000 
0.550000 0.500000 0.000000 
0.550000 1.000000 0.000000 
0.525000 1.000000 0.000000 
0.500000 1.000000 0.000000 
0.500000 0.500000 0.000000 
0.550000 0.000000 0.000000 
0.575000 0.000000 0.000000 
0.600000 0.000000 0.000000 
0.600000 0.500000 0.000000 
0.600000 1.000000 0.000000 
0.575000 1.000000 0.000000 
0.550000 1.000000 0.000000 
0.550000 0.500000 0.000000 
0.600000 0.000000 0.000000 
0.625000 0.000000 0.000000 
0.650000 0.000000 0.000000 
0.650000 0.500000 0.000000 
0.650000 1.000000 0.000000 
0.625000 1.000000 0.000000 
0.600000 1.000000 0.000000 
0.600000 0.500000 0.000000 
0.650000 0.000000 0.000000 
0.675000 0.000000 0.000000 
0.700000 0.000000 0.000000 
0.700000 0.500000 0.000000 
0.700000 1.000000 0.000000 
0.675000 1.000000 0.000000 
0.650000 1.000000 0.000000 
0.650000 0.500000 0.000000 
0.700000 0.000000 0.000000 
0.725000 0.000000 0.000000 
0.750000 0.000000 0.000000 
0.750000 0.500000 0.000000 
0.750000 1.000000 0.000000 
0.725000 1.000000 0.000000 
0.700000 1.000000 0.000000 
0.700000 0.500000 0.000000 
0.750000 0.000000 0.000000 
0.775000 0.000000 0.000000 
0.800000 0.000000 0.000000 
0.800000 0.500000 0.000000 
0.800000 1.000000 0.000000 
0.775000 1.000000 0.000000 
0.750000 1.000000 0.000000 
0.750000 0.500000 0.000000 
0.800000 0.000000 0.000000 
0.825000 0.000000 0.000000 
0.850000 0.000000 0.000000 
0.850000 0.500000 0.000000 
0.850000 1.000000 0.000000 
0.825000 1.000000 0.000000 
0.800000 1.000000 0.000000 
0.800000 0.500000 0.000000 
0.850000 0.000000 0.000000 
0.875000 0.000000 0.000000 
0.900000 0.000000 0.000000 
0.900000 0.500000 0.000000 
0.900000 1.000000 0.000000 
0.875000 1.000000 0.000000 
0.850000 1.000000 0.000000 
0.850000 0.500000 0.000000 
0.900000 0.000000 0.000000 
0.925000 0.000000 0.000000 
0.950000 0.000000 0.000000 
0.950000 0.500000 0.000000 
0.950000 1.000000 0.000000 
0.925000 1.000000 0.000000 
0.900000 1.000000 0.000000 
0.900000 0.500000 0.000000 
0.950000 0.000000 0.000000 
0.975000 0.000000 0.000000 
1.000000 0.000000 0.000000 
1.000000 0.500000 0.000000 
1.000000 1.000000 0.000000 
0.975000 1.000000 0.000000 
0.950000 1.000000 0.000000 
0.950000 0.500000 0.000000 
CELLS 20 180 
 8 0 1 2 3 4 5 6 7  
 8 8 9 10 11 12 13 14 15  
 8 16 17 18 19 20 21 22 23  
 8 24 25 26 27 28 29 30 31  
 8 32 33 34 35 36 37 38 39  
 8 40 41 42 43 44 45 46 47  
 8 48 49 50 51 52 53 54 55  
 8 56 57 58 59 60 61 62 63  
 8 64 65 66 67 68 69 70 71  
 8 72 73 74 75 76 77 78 79  
 8 80 81 82 83 84 85 86 87  
 8 88 89 90 91 92 93 94 95  
 8 96 97 98 99 100 101 102 103  
 8 104 105 106 107 108 109 110 111  
 8 112 113 114 115 116 117 118 119  
 8 120 121 122 123 124 125 126 127  
 8 128 129 130 131 132 133 134 135  
 8 136 137 138 139 140 141 142 143  
 8 144 145 146 147 148 149 150 151  
 8 152 153 154 155 156 157 158 159  
 
CELL_TYPES 20
7
7
7
7
7
7
7
7
7
7
7
7
7
7
7
7
7
7
7
7
CELL_DATA 20
FIELD FieldData 1
material 1 20 int
1
1
1
1
1
1
1
1
1
1
1
1
1
1
1
1
1
1
1
1
POINT_DATA 160 SCALARS flux_g1 double 
LOOKUP_TABLE   default 
2.13793568e-01
8.66218053e-02
6.06858826e-02
5.82595822e-02
6.06858826e-02
8.66218053e-02
2.13793568e-01
2.15979839e-01
5.85316850e-02
2.92693634e-02
2.28619795e-02
2.26124749e-02
2.28619795e-02
2.92693634e-02
5.85316850e-02
5.87451965e-02
2.24443578e-02
1.54163603e-02
1.36353276e-02
1.35485893e-02
1.36353276e-02
1.54163603e-02
2.24443578e-02
2.25951350e-02
1.35294535e-02
1.15831957e-02
1.08823981e-02
1.08764906e-02
1.08823981e-02
1.15831957e-02
1.35294535e-02
1.35653712e-02
1.08595981e-02
1.01253197e-02
9.71751511e-03
9.71964683e-03
9.71751511e-03
1.01253197e-02
1.08595981e-02
1.08770415e-02
9.71169949e-03
9.29590314e-03
8.98579574e-03
8.98940915e-03
8.98579574e-03
9.29590314e-03
9.71169949e-03
9.72014237e-03
8.98421831e-03
8.67254291e-03
8.40766336e-03
8.41043597e-03
8.40766336e-03
8.67254291e-03
8.98421831e-03
8.98941033e-03
8.40709397e-03
8.14193019e-03
7.90396889e-03
7.90594602e-03
7.90396889e-03
8.14193019e-03
8.40709397e-03
8.41040855e-03
7.90368831e-03
7.66573424e-03
7.44615917e-03
7.44755324e-03
7.44615917e-03
7.66573424e-03
7.90368831e-03
7.90592102e-03
7.44598476e-03
7.22646586e-03
7.02018005e-03
7.02115410e-03
7.02018005e-03
7.22646586e-03
7.44598476e-03
7.44753587e-03
7.02005718e-03
6.81382075e-03
6.61731748e-03
6.61799603e-03
6.61731748e-03
6.81382075e-03
7.02005718e-03
7.02114071e-03
6.61722318e-03
6.42075673e-03
6.23142608e-03
6.23190128e-03
6.23142608e-03
6.42075673e-03
6.61722318e-03
6.61798677e-03
6.23134890e-03
6.04204383e-03
5.85781257e-03
5.85814424e-03
5.85781257e-03
6.04204383e-03
6.23134890e-03
6.23189500e-03
5.85774501e-03
5.67352812e-03
5.49262246e-03
5.49284949e-03
5.49262246e-03
5.67352812e-03
5.85774501e-03
5.85813954e-03
5.49255791e-03
5.31165539e-03
5.13240776e-03
5.13255726e-03
5.13240776e-03
5.31165539e-03
5.49255791e-03
5.49284564e-03
5.13233845e-03
4.95308382e-03
4.77370798e-03
4.77379749e-03
4.77370798e-03
4.95308382e-03
5.13233845e-03
5.13255418e-03
4.77362067e-03
4.59423396e-03
4.41238522e-03
4.41242242e-03
4.41238522e-03
4.59423396e-03
4.77362067e-03
4.77379462e-03
4.41223912e-03
4.23041959e-03
4.04184879e-03
4.04179687e-03
4.04184879e-03
4.23041959e-03
4.41223912e-03
4.41242673e-03
4.04151980e-03
3.85315923e-03
3.64644006e-03
3.64635005e-03
3.64644006e-03
3.85315923e-03
4.04151980e-03
4.04178604e-03
3.64523161e-03
3.43999420e-03
3.17445008e-03
3.17325318e-03
3.17445008e-03
3.43999420e-03
3.64523161e-03
3.64657163e-03
 
