# vtk DataFile Version 3.0 
Date: 5/29/2016   Time: 9:24
ASCII 
DATASET UNSTRUCTURED_GRID 
 
POINTS 80 float 
0.000000 0.000000 0.000000 
0.050000 0.000000 0.000000 
0.100000 0.000000 0.000000 
0.100000 0.500000 0.000000 
0.100000 1.000000 0.000000 
0.050000 1.000000 0.000000 
0.000000 1.000000 0.000000 
0.000000 0.500000 0.000000 
0.100000 0.000000 0.000000 
0.150000 0.000000 0.000000 
0.200000 0.000000 0.000000 
0.200000 0.500000 0.000000 
0.200000 1.000000 0.000000 
0.150000 1.000000 0.000000 
0.100000 1.000000 0.000000 
0.100000 0.500000 0.000000 
0.200000 0.000000 0.000000 
0.250000 0.000000 0.000000 
0.300000 0.000000 0.000000 
0.300000 0.500000 0.000000 
0.300000 1.000000 0.000000 
0.250000 1.000000 0.000000 
0.200000 1.000000 0.000000 
0.200000 0.500000 0.000000 
0.300000 0.000000 0.000000 
0.350000 0.000000 0.000000 
0.400000 0.000000 0.000000 
0.400000 0.500000 0.000000 
0.400000 1.000000 0.000000 
0.350000 1.000000 0.000000 
0.300000 1.000000 0.000000 
0.300000 0.500000 0.000000 
0.400000 0.000000 0.000000 
0.450000 0.000000 0.000000 
0.500000 0.000000 0.000000 
0.500000 0.500000 0.000000 
0.500000 1.000000 0.000000 
0.450000 1.000000 0.000000 
0.400000 1.000000 0.000000 
0.400000 0.500000 0.000000 
0.500000 0.000000 0.000000 
0.550000 0.000000 0.000000 
0.600000 0.000000 0.000000 
0.600000 0.500000 0.000000 
0.600000 1.000000 0.000000 
0.550000 1.000000 0.000000 
0.500000 1.000000 0.000000 
0.500000 0.500000 0.000000 
0.600000 0.000000 0.000000 
0.650000 0.000000 0.000000 
0.700000 0.000000 0.000000 
0.700000 0.500000 0.000000 
0.700000 1.000000 0.000000 
0.650000 1.000000 0.000000 
0.600000 1.000000 0.000000 
0.600000 0.500000 0.000000 
0.700000 0.000000 0.000000 
0.750000 0.000000 0.000000 
0.800000 0.000000 0.000000 
0.800000 0.500000 0.000000 
0.800000 1.000000 0.000000 
0.750000 1.000000 0.000000 
0.700000 1.000000 0.000000 
0.700000 0.500000 0.000000 
0.800000 0.000000 0.000000 
0.850000 0.000000 0.000000 
0.900000 0.000000 0.000000 
0.900000 0.500000 0.000000 
0.900000 1.000000 0.000000 
0.850000 1.000000 0.000000 
0.800000 1.000000 0.000000 
0.800000 0.500000 0.000000 
0.900000 0.000000 0.000000 
0.950000 0.000000 0.000000 
1.000000 0.000000 0.000000 
1.000000 0.500000 0.000000 
1.000000 1.000000 0.000000 
0.950000 1.000000 0.000000 
0.900000 1.000000 0.000000 
0.900000 0.500000 0.000000 
CELLS 10 90 
 8 0 1 2 3 4 5 6 7  
 8 8 9 10 11 12 13 14 15  
 8 16 17 18 19 20 21 22 23  
 8 24 25 26 27 28 29 30 31  
 8 32 33 34 35 36 37 38 39  
 8 40 41 42 43 44 45 46 47  
 8 48 49 50 51 52 53 54 55  
 8 56 57 58 59 60 61 62 63  
 8 64 65 66 67 68 69 70 71  
 8 72 73 74 75 76 77 78 79  
 
CELL_TYPES 10
7
7
7
7
7
7
7
7
7
7
CELL_DATA 10
FIELD FieldData 1
material 1 10 int
1
1
1
1
1
1
1
1
1
1
POINT_DATA 80 SCALARS flux_g1 double 
LOOKUP_TABLE   default 
7.63134321e-02
-4.55686757e-02
2.78033331e-02
2.64778967e-02
2.78033331e-02
-4.55686757e-02
7.63134321e-02
7.72303497e-02
1.47057861e-02
7.08752772e-03
1.06952499e-02
1.06167000e-02
1.06952499e-02
7.08752772e-03
1.47057861e-02
1.45564153e-02
9.96028875e-03
8.97499999e-03
8.64954854e-03
8.61948783e-03
8.64954854e-03
8.97499999e-03
9.96028875e-03
9.91057366e-03
8.60662609e-03
8.01860712e-03
7.47259484e-03
7.45925728e-03
7.47259484e-03
8.01860712e-03
8.60662609e-03
8.58033987e-03
7.47006451e-03
6.90985428e-03
6.35310557e-03
6.34641984e-03
6.35310557e-03
6.90985428e-03
7.47006451e-03
7.45694835e-03
6.35291971e-03
5.79577960e-03
5.23904615e-03
5.23568100e-03
5.23904615e-03
5.79577960e-03
6.35291971e-03
6.34629903e-03
5.23901485e-03
4.68250489e-03
4.12577319e-03
4.12408900e-03
4.12577319e-03
4.68250489e-03
5.23901485e-03
5.23567673e-03
4.12573266e-03
3.56928685e-03
3.01127547e-03
3.01045501e-03
3.01127547e-03
3.56928685e-03
4.12573266e-03
4.12406572e-03
3.01099605e-03
2.45496417e-03
1.88745127e-03
1.88725295e-03
1.88745127e-03
2.45496417e-03
3.01099605e-03
3.01018294e-03
1.88328075e-03
1.35108219e-03
6.70894498e-04
6.70284319e-04
6.70894498e-04
1.35108219e-03
1.88328075e-03
1.88356121e-03
 
