# vtk DataFile Version 3.0 
Date: 5/30/2016   Time: 6:21
ASCII 
DATASET UNSTRUCTURED_GRID 
 
POINTS 160 float 
0.000000 0.000000 0.000000 
0.025000 0.000000 0.000000 
0.050000 0.000000 0.000000 
0.050000 0.500000 0.000000 
0.050000 1.000000 0.000000 
0.025000 1.000000 0.000000 
0.000000 1.000000 0.000000 
0.000000 0.500000 0.000000 
0.050000 0.000000 0.000000 
0.075000 0.000000 0.000000 
0.100000 0.000000 0.000000 
0.100000 0.500000 0.000000 
0.100000 1.000000 0.000000 
0.075000 1.000000 0.000000 
0.050000 1.000000 0.000000 
0.050000 0.500000 0.000000 
0.100000 0.000000 0.000000 
0.125000 0.000000 0.000000 
0.150000 0.000000 0.000000 
0.150000 0.500000 0.000000 
0.150000 1.000000 0.000000 
0.125000 1.000000 0.000000 
0.100000 1.000000 0.000000 
0.100000 0.500000 0.000000 
0.150000 0.000000 0.000000 
0.175000 0.000000 0.000000 
0.200000 0.000000 0.000000 
0.200000 0.500000 0.000000 
0.200000 1.000000 0.000000 
0.175000 1.000000 0.000000 
0.150000 1.000000 0.000000 
0.150000 0.500000 0.000000 
0.200000 0.000000 0.000000 
0.225000 0.000000 0.000000 
0.250000 0.000000 0.000000 
0.250000 0.500000 0.000000 
0.250000 1.000000 0.000000 
0.225000 1.000000 0.000000 
0.200000 1.000000 0.000000 
0.200000 0.500000 0.000000 
0.250000 0.000000 0.000000 
0.275000 0.000000 0.000000 
0.300000 0.000000 0.000000 
0.300000 0.500000 0.000000 
0.300000 1.000000 0.000000 
0.275000 1.000000 0.000000 
0.250000 1.000000 0.000000 
0.250000 0.500000 0.000000 
0.300000 0.000000 0.000000 
0.325000 0.000000 0.000000 
0.350000 0.000000 0.000000 
0.350000 0.500000 0.000000 
0.350000 1.000000 0.000000 
0.325000 1.000000 0.000000 
0.300000 1.000000 0.000000 
0.300000 0.500000 0.000000 
0.350000 0.000000 0.000000 
0.375000 0.000000 0.000000 
0.400000 0.000000 0.000000 
0.400000 0.500000 0.000000 
0.400000 1.000000 0.000000 
0.375000 1.000000 0.000000 
0.350000 1.000000 0.000000 
0.350000 0.500000 0.000000 
0.400000 0.000000 0.000000 
0.425000 0.000000 0.000000 
0.450000 0.000000 0.000000 
0.450000 0.500000 0.000000 
0.450000 1.000000 0.000000 
0.425000 1.000000 0.000000 
0.400000 1.000000 0.000000 
0.400000 0.500000 0.000000 
0.450000 0.000000 0.000000 
0.475000 0.000000 0.000000 
0.500000 0.000000 0.000000 
0.500000 0.500000 0.000000 
0.500000 1.000000 0.000000 
0.475000 1.000000 0.000000 
0.450000 1.000000 0.000000 
0.450000 0.500000 0.000000 
0.500000 0.000000 0.000000 
0.525000 0.000000 0.000000 
0.550000 0.000000 0.000000 
0.550000 0.500000 0.000000 
0.550000 1.000000 0.000000 
0.525000 1.000000 0.000000 
0.500000 1.000000 0.000000 
0.500000 0.500000 0.000000 
0.550000 0.000000 0.000000 
0.575000 0.000000 0.000000 
0.600000 0.000000 0.000000 
0.600000 0.500000 0.000000 
0.600000 1.000000 0.000000 
0.575000 1.000000 0.000000 
0.550000 1.000000 0.000000 
0.550000 0.500000 0.000000 
0.600000 0.000000 0.000000 
0.625000 0.000000 0.000000 
0.650000 0.000000 0.000000 
0.650000 0.500000 0.000000 
0.650000 1.000000 0.000000 
0.625000 1.000000 0.000000 
0.600000 1.000000 0.000000 
0.600000 0.500000 0.000000 
0.650000 0.000000 0.000000 
0.675000 0.000000 0.000000 
0.700000 0.000000 0.000000 
0.700000 0.500000 0.000000 
0.700000 1.000000 0.000000 
0.675000 1.000000 0.000000 
0.650000 1.000000 0.000000 
0.650000 0.500000 0.000000 
0.700000 0.000000 0.000000 
0.725000 0.000000 0.000000 
0.750000 0.000000 0.000000 
0.750000 0.500000 0.000000 
0.750000 1.000000 0.000000 
0.725000 1.000000 0.000000 
0.700000 1.000000 0.000000 
0.700000 0.500000 0.000000 
0.750000 0.000000 0.000000 
0.775000 0.000000 0.000000 
0.800000 0.000000 0.000000 
0.800000 0.500000 0.000000 
0.800000 1.000000 0.000000 
0.775000 1.000000 0.000000 
0.750000 1.000000 0.000000 
0.750000 0.500000 0.000000 
0.800000 0.000000 0.000000 
0.825000 0.000000 0.000000 
0.850000 0.000000 0.000000 
0.850000 0.500000 0.000000 
0.850000 1.000000 0.000000 
0.825000 1.000000 0.000000 
0.800000 1.000000 0.000000 
0.800000 0.500000 0.000000 
0.850000 0.000000 0.000000 
0.875000 0.000000 0.000000 
0.900000 0.000000 0.000000 
0.900000 0.500000 0.000000 
0.900000 1.000000 0.000000 
0.875000 1.000000 0.000000 
0.850000 1.000000 0.000000 
0.850000 0.500000 0.000000 
0.900000 0.000000 0.000000 
0.925000 0.000000 0.000000 
0.950000 0.000000 0.000000 
0.950000 0.500000 0.000000 
0.950000 1.000000 0.000000 
0.925000 1.000000 0.000000 
0.900000 1.000000 0.000000 
0.900000 0.500000 0.000000 
0.950000 0.000000 0.000000 
0.975000 0.000000 0.000000 
1.000000 0.000000 0.000000 
1.000000 0.500000 0.000000 
1.000000 1.000000 0.000000 
0.975000 1.000000 0.000000 
0.950000 1.000000 0.000000 
0.950000 0.500000 0.000000 
CELLS 20 180 
 8 0 1 2 3 4 5 6 7  
 8 8 9 10 11 12 13 14 15  
 8 16 17 18 19 20 21 22 23  
 8 24 25 26 27 28 29 30 31  
 8 32 33 34 35 36 37 38 39  
 8 40 41 42 43 44 45 46 47  
 8 48 49 50 51 52 53 54 55  
 8 56 57 58 59 60 61 62 63  
 8 64 65 66 67 68 69 70 71  
 8 72 73 74 75 76 77 78 79  
 8 80 81 82 83 84 85 86 87  
 8 88 89 90 91 92 93 94 95  
 8 96 97 98 99 100 101 102 103  
 8 104 105 106 107 108 109 110 111  
 8 112 113 114 115 116 117 118 119  
 8 120 121 122 123 124 125 126 127  
 8 128 129 130 131 132 133 134 135  
 8 136 137 138 139 140 141 142 143  
 8 144 145 146 147 148 149 150 151  
 8 152 153 154 155 156 157 158 159  
 
CELL_TYPES 20
7
7
7
7
7
7
7
7
7
7
7
7
7
7
7
7
7
7
7
7
CELL_DATA 20
FIELD FieldData 1
material 1 20 int
1
1
1
1
1
1
1
1
1
1
1
1
1
1
1
1
1
1
1
1
POINT_DATA 160 SCALARS flux_g1 double 
LOOKUP_TABLE   default 
2.15952476e-01
8.61170195e-02
5.83908496e-02
6.26885119e-02
5.83908496e-02
8.61170195e-02
2.15952476e-01
2.12778654e-01
5.90468894e-02
2.91488990e-02
2.24192785e-02
2.34687421e-02
2.24192785e-02
2.91488990e-02
5.90468894e-02
5.80994099e-02
2.26143322e-02
1.54153598e-02
1.35321968e-02
1.37512293e-02
1.35321968e-02
1.54153598e-02
2.26143322e-02
2.23480536e-02
1.35790290e-02
1.15914834e-02
1.08686812e-02
1.09039581e-02
1.08686812e-02
1.15914834e-02
1.35790290e-02
1.34937078e-02
1.08791927e-02
1.01332198e-02
9.71876069e-03
9.71763181e-03
9.71876069e-03
1.01332198e-02
1.08791927e-02
1.08457389e-02
9.72107394e-03
9.30145222e-03
8.98923421e-03
8.98298981e-03
8.98923421e-03
9.30145222e-03
9.72107394e-03
9.70433384e-03
8.98970858e-03
8.67636254e-03
8.41052566e-03
8.40512936e-03
8.41052566e-03
8.67636254e-03
8.98970858e-03
8.97986118e-03
8.41061010e-03
8.14455551e-03
7.90607699e-03
7.90211680e-03
7.90607699e-03
8.14455551e-03
8.41061010e-03
8.40429135e-03
7.90608537e-03
7.66757727e-03
7.44767753e-03
7.44487811e-03
7.44767753e-03
7.66757727e-03
7.90608537e-03
7.90181818e-03
7.44767297e-03
7.22778010e-03
7.02127075e-03
7.01931139e-03
7.02127075e-03
7.22778010e-03
7.44767297e-03
7.44472370e-03
7.02126665e-03
6.81476939e-03
6.61810674e-03
6.61673430e-03
6.61810674e-03
6.81476939e-03
7.02126665e-03
7.01920139e-03
6.61810534e-03
6.42145171e-03
6.23200366e-03
6.23104151e-03
6.23200366e-03
6.42145171e-03
6.61810534e-03
6.61664111e-03
6.23200449e-03
6.04256036e-03
5.85823797e-03
5.85756768e-03
5.85823797e-03
6.04256036e-03
6.23200449e-03
6.23095545e-03
5.85824058e-03
5.67391656e-03
5.49293553e-03
5.49247625e-03
5.49293553e-03
5.67391656e-03
5.85824058e-03
5.85748185e-03
5.49294005e-03
5.31195095e-03
5.13263562e-03
5.13233211e-03
5.13263562e-03
5.31195095e-03
5.49294005e-03
5.49238283e-03
5.13264303e-03
4.95331221e-03
4.77386703e-03
4.77368488e-03
4.77386703e-03
4.95331221e-03
5.13264303e-03
5.13221904e-03
4.77388101e-03
4.59441552e-03
4.41247824e-03
4.41240805e-03
4.41247824e-03
4.59441552e-03
4.77388101e-03
4.77352403e-03
4.41251312e-03
4.23057433e-03
4.04183949e-03
4.04192785e-03
4.04183949e-03
4.23057433e-03
4.41251312e-03
4.41210902e-03
4.04195142e-03
3.85336126e-03
3.64624048e-03
3.64669269e-03
3.64624048e-03
3.85336126e-03
4.04195142e-03
4.04114594e-03
3.64657761e-03
3.44033855e-03
3.17329667e-03
3.17507444e-03
3.17329667e-03
3.44033855e-03
3.64657761e-03
3.64414958e-03
 
