# vtk DataFile Version 3.0 
Date: 5/30/2016   Time: 0:36
ASCII 
DATASET UNSTRUCTURED_GRID 
 
POINTS 80 float 
0.000000 0.000000 0.000000 
0.050000 0.000000 0.000000 
0.050000 1.000000 0.000000 
0.000000 1.000000 0.000000 
0.050000 0.000000 0.000000 
0.100000 0.000000 0.000000 
0.100000 1.000000 0.000000 
0.050000 1.000000 0.000000 
0.100000 0.000000 0.000000 
0.150000 0.000000 0.000000 
0.150000 1.000000 0.000000 
0.100000 1.000000 0.000000 
0.150000 0.000000 0.000000 
0.200000 0.000000 0.000000 
0.200000 1.000000 0.000000 
0.150000 1.000000 0.000000 
0.200000 0.000000 0.000000 
0.250000 0.000000 0.000000 
0.250000 1.000000 0.000000 
0.200000 1.000000 0.000000 
0.250000 0.000000 0.000000 
0.300000 0.000000 0.000000 
0.300000 1.000000 0.000000 
0.250000 1.000000 0.000000 
0.300000 0.000000 0.000000 
0.350000 0.000000 0.000000 
0.350000 1.000000 0.000000 
0.300000 1.000000 0.000000 
0.350000 0.000000 0.000000 
0.400000 0.000000 0.000000 
0.400000 1.000000 0.000000 
0.350000 1.000000 0.000000 
0.400000 0.000000 0.000000 
0.450000 0.000000 0.000000 
0.450000 1.000000 0.000000 
0.400000 1.000000 0.000000 
0.450000 0.000000 0.000000 
0.500000 0.000000 0.000000 
0.500000 1.000000 0.000000 
0.450000 1.000000 0.000000 
0.500000 0.000000 0.000000 
0.550000 0.000000 0.000000 
0.550000 1.000000 0.000000 
0.500000 1.000000 0.000000 
0.550000 0.000000 0.000000 
0.600000 0.000000 0.000000 
0.600000 1.000000 0.000000 
0.550000 1.000000 0.000000 
0.600000 0.000000 0.000000 
0.650000 0.000000 0.000000 
0.650000 1.000000 0.000000 
0.600000 1.000000 0.000000 
0.650000 0.000000 0.000000 
0.700000 0.000000 0.000000 
0.700000 1.000000 0.000000 
0.650000 1.000000 0.000000 
0.700000 0.000000 0.000000 
0.750000 0.000000 0.000000 
0.750000 1.000000 0.000000 
0.700000 1.000000 0.000000 
0.750000 0.000000 0.000000 
0.800000 0.000000 0.000000 
0.800000 1.000000 0.000000 
0.750000 1.000000 0.000000 
0.800000 0.000000 0.000000 
0.850000 0.000000 0.000000 
0.850000 1.000000 0.000000 
0.800000 1.000000 0.000000 
0.850000 0.000000 0.000000 
0.900000 0.000000 0.000000 
0.900000 1.000000 0.000000 
0.850000 1.000000 0.000000 
0.900000 0.000000 0.000000 
0.950000 0.000000 0.000000 
0.950000 1.000000 0.000000 
0.900000 1.000000 0.000000 
0.950000 0.000000 0.000000 
1.000000 0.000000 0.000000 
1.000000 1.000000 0.000000 
0.950000 1.000000 0.000000 
CELLS 20 100 
 4 0 1 2 3  
 4 4 5 6 7  
 4 8 9 10 11  
 4 12 13 14 15  
 4 16 17 18 19  
 4 20 21 22 23  
 4 24 25 26 27  
 4 28 29 30 31  
 4 32 33 34 35  
 4 36 37 38 39  
 4 40 41 42 43  
 4 44 45 46 47  
 4 48 49 50 51  
 4 52 53 54 55  
 4 56 57 58 59  
 4 60 61 62 63  
 4 64 65 66 67  
 4 68 69 70 71  
 4 72 73 74 75  
 4 76 77 78 79  
 
CELL_TYPES 20
7
7
7
7
7
7
7
7
7
7
7
7
7
7
7
7
7
7
7
7
CELL_DATA 20
FIELD FieldData 1
material 1 20 int
1
1
1
1
1
1
1
1
1
1
1
1
1
1
1
1
1
1
1
1
POINT_DATA 80 SCALARS flux_g1 double 
LOOKUP_TABLE   default 
7.04618872e-02
-9.97753224e-03
-9.97753224e-03
7.04618872e-02
7.45637027e-03
1.29411691e-02
1.29411691e-02
7.45637027e-03
1.14903012e-02
1.02493090e-02
1.02493090e-02
1.14903012e-02
1.03694095e-02
9.80018359e-03
9.80018359e-03
1.03694095e-02
9.78972364e-03
9.20286338e-03
9.20286338e-03
9.78972364e-03
9.20351723e-03
8.63362199e-03
8.63362199e-03
9.20351723e-03
8.63346231e-03
8.06894370e-03
8.06894370e-03
8.63346231e-03
8.06890524e-03
7.50708752e-03
7.50708752e-03
8.06890524e-03
7.50706468e-03
6.94653823e-03
6.94653823e-03
7.50706468e-03
6.94652667e-03
6.38663868e-03
6.38663868e-03
6.94652667e-03
6.38663237e-03
5.82705504e-03
5.82705504e-03
6.38663237e-03
5.82705120e-03
5.26760598e-03
5.26760598e-03
5.82705120e-03
5.26760293e-03
4.70816999e-03
4.70816999e-03
5.26760293e-03
4.70816640e-03
4.14862520e-03
4.14862520e-03
4.70816640e-03
4.14861938e-03
3.58878299e-03
3.58878299e-03
4.14861938e-03
3.58877211e-03
3.02826395e-03
3.02826395e-03
3.58877211e-03
3.02824018e-03
2.46620637e-03
2.46620637e-03
3.02824018e-03
2.46618112e-03
1.90021345e-03
1.90021345e-03
2.46618112e-03
1.89989467e-03
1.32474577e-03
1.32474577e-03
1.89989467e-03
1.32823116e-03
6.80331802e-04
6.80331802e-04
1.32823116e-03
 
