# vtk DataFile Version 3.0 
Date: 5/30/2016   Time: 3:7
ASCII 
DATASET UNSTRUCTURED_GRID 
 
POINTS 160 float 
0.000000 0.000000 0.000000 
0.025000 0.000000 0.000000 
0.050000 0.000000 0.000000 
0.050000 0.500000 0.000000 
0.050000 1.000000 0.000000 
0.025000 1.000000 0.000000 
0.000000 1.000000 0.000000 
0.000000 0.500000 0.000000 
0.050000 0.000000 0.000000 
0.075000 0.000000 0.000000 
0.100000 0.000000 0.000000 
0.100000 0.500000 0.000000 
0.100000 1.000000 0.000000 
0.075000 1.000000 0.000000 
0.050000 1.000000 0.000000 
0.050000 0.500000 0.000000 
0.100000 0.000000 0.000000 
0.125000 0.000000 0.000000 
0.150000 0.000000 0.000000 
0.150000 0.500000 0.000000 
0.150000 1.000000 0.000000 
0.125000 1.000000 0.000000 
0.100000 1.000000 0.000000 
0.100000 0.500000 0.000000 
0.150000 0.000000 0.000000 
0.175000 0.000000 0.000000 
0.200000 0.000000 0.000000 
0.200000 0.500000 0.000000 
0.200000 1.000000 0.000000 
0.175000 1.000000 0.000000 
0.150000 1.000000 0.000000 
0.150000 0.500000 0.000000 
0.200000 0.000000 0.000000 
0.225000 0.000000 0.000000 
0.250000 0.000000 0.000000 
0.250000 0.500000 0.000000 
0.250000 1.000000 0.000000 
0.225000 1.000000 0.000000 
0.200000 1.000000 0.000000 
0.200000 0.500000 0.000000 
0.250000 0.000000 0.000000 
0.275000 0.000000 0.000000 
0.300000 0.000000 0.000000 
0.300000 0.500000 0.000000 
0.300000 1.000000 0.000000 
0.275000 1.000000 0.000000 
0.250000 1.000000 0.000000 
0.250000 0.500000 0.000000 
0.300000 0.000000 0.000000 
0.325000 0.000000 0.000000 
0.350000 0.000000 0.000000 
0.350000 0.500000 0.000000 
0.350000 1.000000 0.000000 
0.325000 1.000000 0.000000 
0.300000 1.000000 0.000000 
0.300000 0.500000 0.000000 
0.350000 0.000000 0.000000 
0.375000 0.000000 0.000000 
0.400000 0.000000 0.000000 
0.400000 0.500000 0.000000 
0.400000 1.000000 0.000000 
0.375000 1.000000 0.000000 
0.350000 1.000000 0.000000 
0.350000 0.500000 0.000000 
0.400000 0.000000 0.000000 
0.425000 0.000000 0.000000 
0.450000 0.000000 0.000000 
0.450000 0.500000 0.000000 
0.450000 1.000000 0.000000 
0.425000 1.000000 0.000000 
0.400000 1.000000 0.000000 
0.400000 0.500000 0.000000 
0.450000 0.000000 0.000000 
0.475000 0.000000 0.000000 
0.500000 0.000000 0.000000 
0.500000 0.500000 0.000000 
0.500000 1.000000 0.000000 
0.475000 1.000000 0.000000 
0.450000 1.000000 0.000000 
0.450000 0.500000 0.000000 
0.500000 0.000000 0.000000 
0.525000 0.000000 0.000000 
0.550000 0.000000 0.000000 
0.550000 0.500000 0.000000 
0.550000 1.000000 0.000000 
0.525000 1.000000 0.000000 
0.500000 1.000000 0.000000 
0.500000 0.500000 0.000000 
0.550000 0.000000 0.000000 
0.575000 0.000000 0.000000 
0.600000 0.000000 0.000000 
0.600000 0.500000 0.000000 
0.600000 1.000000 0.000000 
0.575000 1.000000 0.000000 
0.550000 1.000000 0.000000 
0.550000 0.500000 0.000000 
0.600000 0.000000 0.000000 
0.625000 0.000000 0.000000 
0.650000 0.000000 0.000000 
0.650000 0.500000 0.000000 
0.650000 1.000000 0.000000 
0.625000 1.000000 0.000000 
0.600000 1.000000 0.000000 
0.600000 0.500000 0.000000 
0.650000 0.000000 0.000000 
0.675000 0.000000 0.000000 
0.700000 0.000000 0.000000 
0.700000 0.500000 0.000000 
0.700000 1.000000 0.000000 
0.675000 1.000000 0.000000 
0.650000 1.000000 0.000000 
0.650000 0.500000 0.000000 
0.700000 0.000000 0.000000 
0.725000 0.000000 0.000000 
0.750000 0.000000 0.000000 
0.750000 0.500000 0.000000 
0.750000 1.000000 0.000000 
0.725000 1.000000 0.000000 
0.700000 1.000000 0.000000 
0.700000 0.500000 0.000000 
0.750000 0.000000 0.000000 
0.775000 0.000000 0.000000 
0.800000 0.000000 0.000000 
0.800000 0.500000 0.000000 
0.800000 1.000000 0.000000 
0.775000 1.000000 0.000000 
0.750000 1.000000 0.000000 
0.750000 0.500000 0.000000 
0.800000 0.000000 0.000000 
0.825000 0.000000 0.000000 
0.850000 0.000000 0.000000 
0.850000 0.500000 0.000000 
0.850000 1.000000 0.000000 
0.825000 1.000000 0.000000 
0.800000 1.000000 0.000000 
0.800000 0.500000 0.000000 
0.850000 0.000000 0.000000 
0.875000 0.000000 0.000000 
0.900000 0.000000 0.000000 
0.900000 0.500000 0.000000 
0.900000 1.000000 0.000000 
0.875000 1.000000 0.000000 
0.850000 1.000000 0.000000 
0.850000 0.500000 0.000000 
0.900000 0.000000 0.000000 
0.925000 0.000000 0.000000 
0.950000 0.000000 0.000000 
0.950000 0.500000 0.000000 
0.950000 1.000000 0.000000 
0.925000 1.000000 0.000000 
0.900000 1.000000 0.000000 
0.900000 0.500000 0.000000 
0.950000 0.000000 0.000000 
0.975000 0.000000 0.000000 
1.000000 0.000000 0.000000 
1.000000 0.500000 0.000000 
1.000000 1.000000 0.000000 
0.975000 1.000000 0.000000 
0.950000 1.000000 0.000000 
0.950000 0.500000 0.000000 
CELLS 20 180 
 8 0 1 2 3 4 5 6 7  
 8 8 9 10 11 12 13 14 15  
 8 16 17 18 19 20 21 22 23  
 8 24 25 26 27 28 29 30 31  
 8 32 33 34 35 36 37 38 39  
 8 40 41 42 43 44 45 46 47  
 8 48 49 50 51 52 53 54 55  
 8 56 57 58 59 60 61 62 63  
 8 64 65 66 67 68 69 70 71  
 8 72 73 74 75 76 77 78 79  
 8 80 81 82 83 84 85 86 87  
 8 88 89 90 91 92 93 94 95  
 8 96 97 98 99 100 101 102 103  
 8 104 105 106 107 108 109 110 111  
 8 112 113 114 115 116 117 118 119  
 8 120 121 122 123 124 125 126 127  
 8 128 129 130 131 132 133 134 135  
 8 136 137 138 139 140 141 142 143  
 8 144 145 146 147 148 149 150 151  
 8 152 153 154 155 156 157 158 159  
 
CELL_TYPES 20
7
7
7
7
7
7
7
7
7
7
7
7
7
7
7
7
7
7
7
7
CELL_DATA 20
FIELD FieldData 1
material 1 20 int
1
1
1
1
1
1
1
1
1
1
1
1
1
1
1
1
1
1
1
1
POINT_DATA 160 SCALARS flux_g1 double 
LOOKUP_TABLE   default 
3.68025506e-02
-1.28763049e-02
2.01224349e-02
2.01224359e-02
2.01224349e-02
-1.28763049e-02
3.68025506e-02
3.68025508e-02
1.32648062e-02
1.15303504e-02
1.21012095e-02
1.21012113e-02
1.21012095e-02
1.15303504e-02
1.32648062e-02
1.32648071e-02
1.19355035e-02
1.15524708e-02
1.12576345e-02
1.12576370e-02
1.12576345e-02
1.15524708e-02
1.19355035e-02
1.19355053e-02
1.12522594e-02
1.09213549e-02
1.05948062e-02
1.05948095e-02
1.05948062e-02
1.09213549e-02
1.12522594e-02
1.12522620e-02
1.05945683e-02
1.02662456e-02
9.93816919e-03
9.93817309e-03
9.93816919e-03
1.02662456e-02
1.05945683e-02
1.05945716e-02
9.93815639e-03
9.60997965e-03
9.28181770e-03
9.28182214e-03
9.28181770e-03
9.60997965e-03
9.93815639e-03
9.93816028e-03
9.28181695e-03
8.95364900e-03
8.62548198e-03
8.62548685e-03
8.62548198e-03
8.95364900e-03
9.28181695e-03
9.28182138e-03
8.62548193e-03
8.29731456e-03
7.96914728e-03
7.96915247e-03
7.96914728e-03
8.29731456e-03
8.62548193e-03
8.62548680e-03
7.96914728e-03
7.64097999e-03
7.31281274e-03
7.31281812e-03
7.31281274e-03
7.64097999e-03
7.96914728e-03
7.96915246e-03
7.31281274e-03
6.98464551e-03
6.65647831e-03
6.65648375e-03
6.65647831e-03
6.98464551e-03
7.31281274e-03
7.31281812e-03
6.65647831e-03
6.32831113e-03
6.00014398e-03
6.00014937e-03
6.00014398e-03
6.32831113e-03
6.65647831e-03
6.65648375e-03
6.00014398e-03
5.67197686e-03
5.34380977e-03
5.34381495e-03
5.34380977e-03
5.67197686e-03
6.00014398e-03
6.00014937e-03
5.34380977e-03
5.01564269e-03
4.68747565e-03
4.68748052e-03
4.68747565e-03
5.01564269e-03
5.34380977e-03
5.34381495e-03
4.68747565e-03
4.35930862e-03
4.03114163e-03
4.03114606e-03
4.03114163e-03
4.35930862e-03
4.68747565e-03
4.68748052e-03
4.03114163e-03
3.70297465e-03
3.37480769e-03
3.37481158e-03
3.37480769e-03
3.70297465e-03
4.03114163e-03
4.03114606e-03
3.37480767e-03
3.04664083e-03
2.71847374e-03
2.71847700e-03
2.71847374e-03
3.04664083e-03
3.37480767e-03
3.37481157e-03
2.71847353e-03
2.39030824e-03
2.06213849e-03
2.06214104e-03
2.06213849e-03
2.39030824e-03
2.71847353e-03
2.71847679e-03
2.06213495e-03
1.73399530e-03
1.40577977e-03
1.40578154e-03
1.40577977e-03
1.73399530e-03
2.06213495e-03
2.06213750e-03
1.40571889e-03
1.07802538e-03
7.48995786e-04
7.48996744e-04
7.48995786e-04
1.07802538e-03
1.40571889e-03
1.40572066e-03
7.47890480e-04
4.28417238e-04
8.39743269e-05
8.39744375e-05
8.39743269e-05
4.28417238e-04
7.47890480e-04
7.47891441e-04
 
