# vtk DataFile Version 3.0 
Date: 5/30/2016   Time: 5:3
ASCII 
DATASET UNSTRUCTURED_GRID 
 
POINTS 160 float 
0.000000 0.000000 0.000000 
0.025000 0.000000 0.000000 
0.050000 0.000000 0.000000 
0.050000 0.500000 0.000000 
0.050000 1.000000 0.000000 
0.025000 1.000000 0.000000 
0.000000 1.000000 0.000000 
0.000000 0.500000 0.000000 
0.050000 0.000000 0.000000 
0.075000 0.000000 0.000000 
0.100000 0.000000 0.000000 
0.100000 0.500000 0.000000 
0.100000 1.000000 0.000000 
0.075000 1.000000 0.000000 
0.050000 1.000000 0.000000 
0.050000 0.500000 0.000000 
0.100000 0.000000 0.000000 
0.125000 0.000000 0.000000 
0.150000 0.000000 0.000000 
0.150000 0.500000 0.000000 
0.150000 1.000000 0.000000 
0.125000 1.000000 0.000000 
0.100000 1.000000 0.000000 
0.100000 0.500000 0.000000 
0.150000 0.000000 0.000000 
0.175000 0.000000 0.000000 
0.200000 0.000000 0.000000 
0.200000 0.500000 0.000000 
0.200000 1.000000 0.000000 
0.175000 1.000000 0.000000 
0.150000 1.000000 0.000000 
0.150000 0.500000 0.000000 
0.200000 0.000000 0.000000 
0.225000 0.000000 0.000000 
0.250000 0.000000 0.000000 
0.250000 0.500000 0.000000 
0.250000 1.000000 0.000000 
0.225000 1.000000 0.000000 
0.200000 1.000000 0.000000 
0.200000 0.500000 0.000000 
0.250000 0.000000 0.000000 
0.275000 0.000000 0.000000 
0.300000 0.000000 0.000000 
0.300000 0.500000 0.000000 
0.300000 1.000000 0.000000 
0.275000 1.000000 0.000000 
0.250000 1.000000 0.000000 
0.250000 0.500000 0.000000 
0.300000 0.000000 0.000000 
0.325000 0.000000 0.000000 
0.350000 0.000000 0.000000 
0.350000 0.500000 0.000000 
0.350000 1.000000 0.000000 
0.325000 1.000000 0.000000 
0.300000 1.000000 0.000000 
0.300000 0.500000 0.000000 
0.350000 0.000000 0.000000 
0.375000 0.000000 0.000000 
0.400000 0.000000 0.000000 
0.400000 0.500000 0.000000 
0.400000 1.000000 0.000000 
0.375000 1.000000 0.000000 
0.350000 1.000000 0.000000 
0.350000 0.500000 0.000000 
0.400000 0.000000 0.000000 
0.425000 0.000000 0.000000 
0.450000 0.000000 0.000000 
0.450000 0.500000 0.000000 
0.450000 1.000000 0.000000 
0.425000 1.000000 0.000000 
0.400000 1.000000 0.000000 
0.400000 0.500000 0.000000 
0.450000 0.000000 0.000000 
0.475000 0.000000 0.000000 
0.500000 0.000000 0.000000 
0.500000 0.500000 0.000000 
0.500000 1.000000 0.000000 
0.475000 1.000000 0.000000 
0.450000 1.000000 0.000000 
0.450000 0.500000 0.000000 
0.500000 0.000000 0.000000 
0.525000 0.000000 0.000000 
0.550000 0.000000 0.000000 
0.550000 0.500000 0.000000 
0.550000 1.000000 0.000000 
0.525000 1.000000 0.000000 
0.500000 1.000000 0.000000 
0.500000 0.500000 0.000000 
0.550000 0.000000 0.000000 
0.575000 0.000000 0.000000 
0.600000 0.000000 0.000000 
0.600000 0.500000 0.000000 
0.600000 1.000000 0.000000 
0.575000 1.000000 0.000000 
0.550000 1.000000 0.000000 
0.550000 0.500000 0.000000 
0.600000 0.000000 0.000000 
0.625000 0.000000 0.000000 
0.650000 0.000000 0.000000 
0.650000 0.500000 0.000000 
0.650000 1.000000 0.000000 
0.625000 1.000000 0.000000 
0.600000 1.000000 0.000000 
0.600000 0.500000 0.000000 
0.650000 0.000000 0.000000 
0.675000 0.000000 0.000000 
0.700000 0.000000 0.000000 
0.700000 0.500000 0.000000 
0.700000 1.000000 0.000000 
0.675000 1.000000 0.000000 
0.650000 1.000000 0.000000 
0.650000 0.500000 0.000000 
0.700000 0.000000 0.000000 
0.725000 0.000000 0.000000 
0.750000 0.000000 0.000000 
0.750000 0.500000 0.000000 
0.750000 1.000000 0.000000 
0.725000 1.000000 0.000000 
0.700000 1.000000 0.000000 
0.700000 0.500000 0.000000 
0.750000 0.000000 0.000000 
0.775000 0.000000 0.000000 
0.800000 0.000000 0.000000 
0.800000 0.500000 0.000000 
0.800000 1.000000 0.000000 
0.775000 1.000000 0.000000 
0.750000 1.000000 0.000000 
0.750000 0.500000 0.000000 
0.800000 0.000000 0.000000 
0.825000 0.000000 0.000000 
0.850000 0.000000 0.000000 
0.850000 0.500000 0.000000 
0.850000 1.000000 0.000000 
0.825000 1.000000 0.000000 
0.800000 1.000000 0.000000 
0.800000 0.500000 0.000000 
0.850000 0.000000 0.000000 
0.875000 0.000000 0.000000 
0.900000 0.000000 0.000000 
0.900000 0.500000 0.000000 
0.900000 1.000000 0.000000 
0.875000 1.000000 0.000000 
0.850000 1.000000 0.000000 
0.850000 0.500000 0.000000 
0.900000 0.000000 0.000000 
0.925000 0.000000 0.000000 
0.950000 0.000000 0.000000 
0.950000 0.500000 0.000000 
0.950000 1.000000 0.000000 
0.925000 1.000000 0.000000 
0.900000 1.000000 0.000000 
0.900000 0.500000 0.000000 
0.950000 0.000000 0.000000 
0.975000 0.000000 0.000000 
1.000000 0.000000 0.000000 
1.000000 0.500000 0.000000 
1.000000 1.000000 0.000000 
0.975000 1.000000 0.000000 
0.950000 1.000000 0.000000 
0.950000 0.500000 0.000000 
CELLS 20 180 
 8 0 1 2 3 4 5 6 7  
 8 8 9 10 11 12 13 14 15  
 8 16 17 18 19 20 21 22 23  
 8 24 25 26 27 28 29 30 31  
 8 32 33 34 35 36 37 38 39  
 8 40 41 42 43 44 45 46 47  
 8 48 49 50 51 52 53 54 55  
 8 56 57 58 59 60 61 62 63  
 8 64 65 66 67 68 69 70 71  
 8 72 73 74 75 76 77 78 79  
 8 80 81 82 83 84 85 86 87  
 8 88 89 90 91 92 93 94 95  
 8 96 97 98 99 100 101 102 103  
 8 104 105 106 107 108 109 110 111  
 8 112 113 114 115 116 117 118 119  
 8 120 121 122 123 124 125 126 127  
 8 128 129 130 131 132 133 134 135  
 8 136 137 138 139 140 141 142 143  
 8 144 145 146 147 148 149 150 151  
 8 152 153 154 155 156 157 158 159  
 
CELL_TYPES 20
7
7
7
7
7
7
7
7
7
7
7
7
7
7
7
7
7
7
7
7
CELL_DATA 20
FIELD FieldData 1
material 1 20 int
1
1
1
1
1
1
1
1
1
1
1
1
1
1
1
1
1
1
1
1
POINT_DATA 160 SCALARS flux_g1 double 
LOOKUP_TABLE   default 
2.14391656e-01
8.66843258e-02
5.99046568e-02
5.98678001e-02
5.99046568e-02
8.66843258e-02
2.14391656e-01
2.14422574e-01
5.85921950e-02
2.92716484e-02
2.27840497e-02
2.27784341e-02
2.27840497e-02
2.92716484e-02
5.85921950e-02
5.85973072e-02
2.24882550e-02
1.54324029e-02
1.36078355e-02
1.36064252e-02
1.36078355e-02
1.54324029e-02
2.24882550e-02
2.24903651e-02
1.35403497e-02
1.15890847e-02
1.08807238e-02
1.08805440e-02
1.08807238e-02
1.15890847e-02
1.35403497e-02
1.35409919e-02
1.08649742e-02
1.01289198e-02
9.71828900e-03
9.71831163e-03
9.71828900e-03
1.01289198e-02
1.08649742e-02
1.08652375e-02
9.71435628e-03
9.29801022e-03
8.98700873e-03
8.98705944e-03
8.98700873e-03
9.29801022e-03
9.71435628e-03
9.71448978e-03
8.98586156e-03
8.67391835e-03
8.40858706e-03
8.40862762e-03
8.40858706e-03
8.67391835e-03
8.98586156e-03
8.98594138e-03
8.40814832e-03
8.14283812e-03
7.90462670e-03
7.90465624e-03
7.90462670e-03
8.14283812e-03
8.40814832e-03
8.40819877e-03
7.90440086e-03
7.66635515e-03
7.44662357e-03
7.44664451e-03
7.44662357e-03
7.66635515e-03
7.90440086e-03
7.90443514e-03
7.44648086e-03
7.22689873e-03
7.02050550e-03
7.02052009e-03
7.02050550e-03
7.22689873e-03
7.44648086e-03
7.44650465e-03
7.02040470e-03
6.81412349e-03
6.61754517e-03
6.61755540e-03
6.61754517e-03
6.81412349e-03
7.02040470e-03
7.02042127e-03
6.61746896e-03
6.42097011e-03
6.23158649e-03
6.23159372e-03
6.23158649e-03
6.42097011e-03
6.61746896e-03
6.61748071e-03
6.23152536e-03
6.04219561e-03
5.85792551e-03
5.85793060e-03
5.85792551e-03
6.04219561e-03
6.23152536e-03
6.23153384e-03
5.85787305e-03
5.67363617e-03
5.49270084e-03
5.49270436e-03
5.49270084e-03
5.67363617e-03
5.85787305e-03
5.85787922e-03
5.49265178e-03
5.31173181e-03
5.13246060e-03
5.13246296e-03
5.13246060e-03
5.31173181e-03
5.49265178e-03
5.49265633e-03
5.13240923e-03
4.95313733e-03
4.77374124e-03
4.77374270e-03
4.77374124e-03
4.95313733e-03
5.13240923e-03
5.13241270e-03
4.77367794e-03
4.59427068e-03
4.41240178e-03
4.41240242e-03
4.41240178e-03
4.59427068e-03
4.77367794e-03
4.77368082e-03
4.41230061e-03
4.23044076e-03
4.04183872e-03
4.04183806e-03
4.04183872e-03
4.23044076e-03
4.41230061e-03
4.41230373e-03
4.04160563e-03
3.85318508e-03
3.64641953e-03
3.64641746e-03
3.64641953e-03
3.85318508e-03
4.04160563e-03
4.04161070e-03
3.64566401e-03
3.43996387e-03
3.17412467e-03
3.17410747e-03
3.17412467e-03
3.43996387e-03
3.64566401e-03
3.64568475e-03
 
