# vtk DataFile Version 3.0 
Date: 5/29/2016   Time: 9:19
ASCII 
DATASET UNSTRUCTURED_GRID 
 
POINTS 80 float 
0.000000 0.000000 0.000000 
0.050000 0.000000 0.000000 
0.100000 0.000000 0.000000 
0.100000 0.500000 0.000000 
0.100000 1.000000 0.000000 
0.050000 1.000000 0.000000 
0.000000 1.000000 0.000000 
0.000000 0.500000 0.000000 
0.100000 0.000000 0.000000 
0.150000 0.000000 0.000000 
0.200000 0.000000 0.000000 
0.200000 0.500000 0.000000 
0.200000 1.000000 0.000000 
0.150000 1.000000 0.000000 
0.100000 1.000000 0.000000 
0.100000 0.500000 0.000000 
0.200000 0.000000 0.000000 
0.250000 0.000000 0.000000 
0.300000 0.000000 0.000000 
0.300000 0.500000 0.000000 
0.300000 1.000000 0.000000 
0.250000 1.000000 0.000000 
0.200000 1.000000 0.000000 
0.200000 0.500000 0.000000 
0.300000 0.000000 0.000000 
0.350000 0.000000 0.000000 
0.400000 0.000000 0.000000 
0.400000 0.500000 0.000000 
0.400000 1.000000 0.000000 
0.350000 1.000000 0.000000 
0.300000 1.000000 0.000000 
0.300000 0.500000 0.000000 
0.400000 0.000000 0.000000 
0.450000 0.000000 0.000000 
0.500000 0.000000 0.000000 
0.500000 0.500000 0.000000 
0.500000 1.000000 0.000000 
0.450000 1.000000 0.000000 
0.400000 1.000000 0.000000 
0.400000 0.500000 0.000000 
0.500000 0.000000 0.000000 
0.550000 0.000000 0.000000 
0.600000 0.000000 0.000000 
0.600000 0.500000 0.000000 
0.600000 1.000000 0.000000 
0.550000 1.000000 0.000000 
0.500000 1.000000 0.000000 
0.500000 0.500000 0.000000 
0.600000 0.000000 0.000000 
0.650000 0.000000 0.000000 
0.700000 0.000000 0.000000 
0.700000 0.500000 0.000000 
0.700000 1.000000 0.000000 
0.650000 1.000000 0.000000 
0.600000 1.000000 0.000000 
0.600000 0.500000 0.000000 
0.700000 0.000000 0.000000 
0.750000 0.000000 0.000000 
0.800000 0.000000 0.000000 
0.800000 0.500000 0.000000 
0.800000 1.000000 0.000000 
0.750000 1.000000 0.000000 
0.700000 1.000000 0.000000 
0.700000 0.500000 0.000000 
0.800000 0.000000 0.000000 
0.850000 0.000000 0.000000 
0.900000 0.000000 0.000000 
0.900000 0.500000 0.000000 
0.900000 1.000000 0.000000 
0.850000 1.000000 0.000000 
0.800000 1.000000 0.000000 
0.800000 0.500000 0.000000 
0.900000 0.000000 0.000000 
0.950000 0.000000 0.000000 
1.000000 0.000000 0.000000 
1.000000 0.500000 0.000000 
1.000000 1.000000 0.000000 
0.950000 1.000000 0.000000 
0.900000 1.000000 0.000000 
0.900000 0.500000 0.000000 
CELLS 10 90 
 8 0 1 2 3 4 5 6 7  
 8 8 9 10 11 12 13 14 15  
 8 16 17 18 19 20 21 22 23  
 8 24 25 26 27 28 29 30 31  
 8 32 33 34 35 36 37 38 39  
 8 40 41 42 43 44 45 46 47  
 8 48 49 50 51 52 53 54 55  
 8 56 57 58 59 60 61 62 63  
 8 64 65 66 67 68 69 70 71  
 8 72 73 74 75 76 77 78 79  
 
CELL_TYPES 10
7
7
7
7
7
7
7
7
7
7
CELL_DATA 10
FIELD FieldData 1
material 1 10 int
1
1
1
1
1
1
1
1
1
1
POINT_DATA 80 SCALARS flux_g1 double 
LOOKUP_TABLE   default 
7.66177106e-02
-4.56373286e-02
2.73632060e-02
2.73632063e-02
2.73632060e-02
-4.56373286e-02
7.66177106e-02
7.66177108e-02
1.46562674e-02
7.04919498e-03
1.06690316e-02
1.06690322e-02
1.06690316e-02
7.04919498e-03
1.46562674e-02
1.46562678e-02
9.94367795e-03
8.96162170e-03
8.63946417e-03
8.63946490e-03
8.63946417e-03
8.96162170e-03
9.94367795e-03
9.94367853e-03
8.59781697e-03
8.01194037e-03
7.46809108e-03
7.46809191e-03
7.46809108e-03
8.01194037e-03
8.59781697e-03
8.59781770e-03
7.46564544e-03
6.90650190e-03
6.35082888e-03
6.35082974e-03
6.35082888e-03
6.90650190e-03
7.46564544e-03
7.46564627e-03
6.35067025e-03
5.79407218e-03
5.23788528e-03
5.23788611e-03
5.23788528e-03
5.79407218e-03
6.35067025e-03
6.35067111e-03
5.23786581e-03
4.68163324e-03
4.12518120e-03
4.12518193e-03
4.12518120e-03
4.68163324e-03
5.23786581e-03
5.23786664e-03
4.12514785e-03
3.56884601e-03
3.01097976e-03
3.01098033e-03
3.01097976e-03
3.56884601e-03
4.12514785e-03
4.12514858e-03
3.01070357e-03
2.45477771e-03
1.88737098e-03
1.88737136e-03
1.88737098e-03
2.45477771e-03
3.01070357e-03
3.01070415e-03
1.88336010e-03
1.35101724e-03
6.70686910e-04
6.70687045e-04
6.70686910e-04
1.35101724e-03
1.88336010e-03
1.88336048e-03
 
