# vtk DataFile Version 3.0 
Date: 5/29/2016   Time: 12:2
ASCII 
DATASET UNSTRUCTURED_GRID 
 
POINTS 80 float 
0.000000 0.000000 0.000000 
0.050000 0.000000 0.000000 
0.100000 0.000000 0.000000 
0.100000 0.500000 0.000000 
0.100000 1.000000 0.000000 
0.050000 1.000000 0.000000 
0.000000 1.000000 0.000000 
0.000000 0.500000 0.000000 
0.100000 0.000000 0.000000 
0.150000 0.000000 0.000000 
0.200000 0.000000 0.000000 
0.200000 0.500000 0.000000 
0.200000 1.000000 0.000000 
0.150000 1.000000 0.000000 
0.100000 1.000000 0.000000 
0.100000 0.500000 0.000000 
0.200000 0.000000 0.000000 
0.250000 0.000000 0.000000 
0.300000 0.000000 0.000000 
0.300000 0.500000 0.000000 
0.300000 1.000000 0.000000 
0.250000 1.000000 0.000000 
0.200000 1.000000 0.000000 
0.200000 0.500000 0.000000 
0.300000 0.000000 0.000000 
0.350000 0.000000 0.000000 
0.400000 0.000000 0.000000 
0.400000 0.500000 0.000000 
0.400000 1.000000 0.000000 
0.350000 1.000000 0.000000 
0.300000 1.000000 0.000000 
0.300000 0.500000 0.000000 
0.400000 0.000000 0.000000 
0.450000 0.000000 0.000000 
0.500000 0.000000 0.000000 
0.500000 0.500000 0.000000 
0.500000 1.000000 0.000000 
0.450000 1.000000 0.000000 
0.400000 1.000000 0.000000 
0.400000 0.500000 0.000000 
0.500000 0.000000 0.000000 
0.550000 0.000000 0.000000 
0.600000 0.000000 0.000000 
0.600000 0.500000 0.000000 
0.600000 1.000000 0.000000 
0.550000 1.000000 0.000000 
0.500000 1.000000 0.000000 
0.500000 0.500000 0.000000 
0.600000 0.000000 0.000000 
0.650000 0.000000 0.000000 
0.700000 0.000000 0.000000 
0.700000 0.500000 0.000000 
0.700000 1.000000 0.000000 
0.650000 1.000000 0.000000 
0.600000 1.000000 0.000000 
0.600000 0.500000 0.000000 
0.700000 0.000000 0.000000 
0.750000 0.000000 0.000000 
0.800000 0.000000 0.000000 
0.800000 0.500000 0.000000 
0.800000 1.000000 0.000000 
0.750000 1.000000 0.000000 
0.700000 1.000000 0.000000 
0.700000 0.500000 0.000000 
0.800000 0.000000 0.000000 
0.850000 0.000000 0.000000 
0.900000 0.000000 0.000000 
0.900000 0.500000 0.000000 
0.900000 1.000000 0.000000 
0.850000 1.000000 0.000000 
0.800000 1.000000 0.000000 
0.800000 0.500000 0.000000 
0.900000 0.000000 0.000000 
0.950000 0.000000 0.000000 
1.000000 0.000000 0.000000 
1.000000 0.500000 0.000000 
1.000000 1.000000 0.000000 
0.950000 1.000000 0.000000 
0.900000 1.000000 0.000000 
0.900000 0.500000 0.000000 
CELLS 10 90 
 8 0 1 2 3 4 5 6 7  
 8 8 9 10 11 12 13 14 15  
 8 16 17 18 19 20 21 22 23  
 8 24 25 26 27 28 29 30 31  
 8 32 33 34 35 36 37 38 39  
 8 40 41 42 43 44 45 46 47  
 8 48 49 50 51 52 53 54 55  
 8 56 57 58 59 60 61 62 63  
 8 64 65 66 67 68 69 70 71  
 8 72 73 74 75 76 77 78 79  
 
CELL_TYPES 10
7
7
7
7
7
7
7
7
7
7
CELL_DATA 10
FIELD FieldData 1
material 1 10 int
1
1
1
1
1
1
1
1
1
1
POINT_DATA 80 SCALARS flux_g1 double 
LOOKUP_TABLE   default 
2.70798376e-02
-1.00854379e-03
1.36699757e-02
1.36699840e-02
1.36699757e-02
-1.00854379e-03
2.70798376e-02
2.70798377e-02
1.24680565e-02
1.15757065e-02
1.10057700e-02
1.10057857e-02
1.10057700e-02
1.15757065e-02
1.24680565e-02
1.24680648e-02
1.09973764e-02
1.03069402e-02
9.62345721e-03
9.62347881e-03
9.62345721e-03
1.03069402e-02
1.09973764e-02
1.09973921e-02
9.62328473e-03
8.93716526e-03
8.25125265e-03
8.25127801e-03
8.25125265e-03
8.93716526e-03
9.62328473e-03
9.62330633e-03
8.25124763e-03
7.56525678e-03
6.87927328e-03
6.87929994e-03
6.87927328e-03
7.56525678e-03
8.25124763e-03
8.25127299e-03
6.87927311e-03
6.19328747e-03
5.50730266e-03
5.50732803e-03
5.50730266e-03
6.19328747e-03
6.87927311e-03
6.87929977e-03
5.50730266e-03
4.82131822e-03
4.13533423e-03
4.13535583e-03
4.13533423e-03
4.82131822e-03
5.50730266e-03
5.50732802e-03
4.13533415e-03
3.44935175e-03
2.76336654e-03
2.76338227e-03
2.76336654e-03
3.44935175e-03
4.13533415e-03
4.13535575e-03
2.76336395e-03
2.07741893e-03
1.39136912e-03
1.39137745e-03
1.39136912e-03
2.07741893e-03
2.76336395e-03
2.76337968e-03
1.39127087e-03
7.06691194e-04
1.82171542e-05
1.82172670e-05
1.82171542e-05
7.06691194e-04
1.39127087e-03
1.39127920e-03
 
