# vtk DataFile Version 3.0 
Date: 5/29/2016   Time: 14:17
ASCII 
DATASET UNSTRUCTURED_GRID 
 
POINTS 80 float 
0.000000 0.000000 0.000000 
0.050000 0.000000 0.000000 
0.100000 0.000000 0.000000 
0.100000 0.500000 0.000000 
0.100000 1.000000 0.000000 
0.050000 1.000000 0.000000 
0.000000 1.000000 0.000000 
0.000000 0.500000 0.000000 
0.100000 0.000000 0.000000 
0.150000 0.000000 0.000000 
0.200000 0.000000 0.000000 
0.200000 0.500000 0.000000 
0.200000 1.000000 0.000000 
0.150000 1.000000 0.000000 
0.100000 1.000000 0.000000 
0.100000 0.500000 0.000000 
0.200000 0.000000 0.000000 
0.250000 0.000000 0.000000 
0.300000 0.000000 0.000000 
0.300000 0.500000 0.000000 
0.300000 1.000000 0.000000 
0.250000 1.000000 0.000000 
0.200000 1.000000 0.000000 
0.200000 0.500000 0.000000 
0.300000 0.000000 0.000000 
0.350000 0.000000 0.000000 
0.400000 0.000000 0.000000 
0.400000 0.500000 0.000000 
0.400000 1.000000 0.000000 
0.350000 1.000000 0.000000 
0.300000 1.000000 0.000000 
0.300000 0.500000 0.000000 
0.400000 0.000000 0.000000 
0.450000 0.000000 0.000000 
0.500000 0.000000 0.000000 
0.500000 0.500000 0.000000 
0.500000 1.000000 0.000000 
0.450000 1.000000 0.000000 
0.400000 1.000000 0.000000 
0.400000 0.500000 0.000000 
0.500000 0.000000 0.000000 
0.550000 0.000000 0.000000 
0.600000 0.000000 0.000000 
0.600000 0.500000 0.000000 
0.600000 1.000000 0.000000 
0.550000 1.000000 0.000000 
0.500000 1.000000 0.000000 
0.500000 0.500000 0.000000 
0.600000 0.000000 0.000000 
0.650000 0.000000 0.000000 
0.700000 0.000000 0.000000 
0.700000 0.500000 0.000000 
0.700000 1.000000 0.000000 
0.650000 1.000000 0.000000 
0.600000 1.000000 0.000000 
0.600000 0.500000 0.000000 
0.700000 0.000000 0.000000 
0.750000 0.000000 0.000000 
0.800000 0.000000 0.000000 
0.800000 0.500000 0.000000 
0.800000 1.000000 0.000000 
0.750000 1.000000 0.000000 
0.700000 1.000000 0.000000 
0.700000 0.500000 0.000000 
0.800000 0.000000 0.000000 
0.850000 0.000000 0.000000 
0.900000 0.000000 0.000000 
0.900000 0.500000 0.000000 
0.900000 1.000000 0.000000 
0.850000 1.000000 0.000000 
0.800000 1.000000 0.000000 
0.800000 0.500000 0.000000 
0.900000 0.000000 0.000000 
0.950000 0.000000 0.000000 
1.000000 0.000000 0.000000 
1.000000 0.500000 0.000000 
1.000000 1.000000 0.000000 
0.950000 1.000000 0.000000 
0.900000 1.000000 0.000000 
0.900000 0.500000 0.000000 
CELLS 10 90 
 8 0 1 2 3 4 5 6 7  
 8 8 9 10 11 12 13 14 15  
 8 16 17 18 19 20 21 22 23  
 8 24 25 26 27 28 29 30 31  
 8 32 33 34 35 36 37 38 39  
 8 40 41 42 43 44 45 46 47  
 8 48 49 50 51 52 53 54 55  
 8 56 57 58 59 60 61 62 63  
 8 64 65 66 67 68 69 70 71  
 8 72 73 74 75 76 77 78 79  
 
CELL_TYPES 10
7
7
7
7
7
7
7
7
7
7
CELL_DATA 10
FIELD FieldData 1
material 1 10 int
1
1
1
1
1
1
1
1
1
1
POINT_DATA 80 SCALARS flux_g1 double 
LOOKUP_TABLE   default 
2.66159036e-02
4.98111544e-03
2.59827302e-02
-1.13321673e-02
2.59827302e-02
4.98111544e-03
2.66159036e-02
2.82297323e-02
2.41126216e-02
2.03209908e-02
1.68218465e-02
-5.33840045e-04
1.68218465e-02
2.03209908e-02
2.41126216e-02
-1.09663295e-02
1.67463450e-02
1.46016327e-02
1.24675889e-02
3.97910380e-03
1.24675889e-02
1.46016327e-02
1.67463450e-02
-5.59688885e-04
1.24347329e-02
1.10365025e-02
9.64075086e-03
5.49052435e-03
9.64075086e-03
1.10365025e-02
1.24347329e-02
3.96793053e-03
9.62477922e-03
8.59053449e-03
7.55742537e-03
5.52927068e-03
7.55742537e-03
8.59053449e-03
9.62477922e-03
5.48503814e-03
7.54961247e-03
6.69321194e-03
5.83736389e-03
4.84827919e-03
5.83736389e-03
6.69321194e-03
7.54961247e-03
5.52658651e-03
5.83353312e-03
5.06386426e-03
4.29446420e-03
3.81628353e-03
4.29446420e-03
5.06386426e-03
5.83353312e-03
4.84696306e-03
4.29256976e-03
3.56483545e-03
2.83722677e-03
2.61459332e-03
2.83722677e-03
3.56483545e-03
4.29256976e-03
3.81563269e-03
2.83625428e-03
2.12809789e-03
1.41990030e-03
1.33380974e-03
1.41990030e-03
2.12809789e-03
2.83625428e-03
2.61425972e-03
1.41919716e-03
7.20962590e-04
1.88980138e-05
1.73297073e-05
1.88980138e-05
7.20962590e-04
1.41919716e-03
1.33365190e-03
 
