# vtk DataFile Version 3.0 
Date: 5/29/2016   Time: 17:47
ASCII 
DATASET UNSTRUCTURED_GRID 
 
POINTS 80 float 
0.000000 0.000000 0.000000 
0.050000 0.000000 0.000000 
0.100000 0.000000 0.000000 
0.100000 0.500000 0.000000 
0.100000 1.000000 0.000000 
0.050000 1.000000 0.000000 
0.000000 1.000000 0.000000 
0.000000 0.500000 0.000000 
0.100000 0.000000 0.000000 
0.150000 0.000000 0.000000 
0.200000 0.000000 0.000000 
0.200000 0.500000 0.000000 
0.200000 1.000000 0.000000 
0.150000 1.000000 0.000000 
0.100000 1.000000 0.000000 
0.100000 0.500000 0.000000 
0.200000 0.000000 0.000000 
0.250000 0.000000 0.000000 
0.300000 0.000000 0.000000 
0.300000 0.500000 0.000000 
0.300000 1.000000 0.000000 
0.250000 1.000000 0.000000 
0.200000 1.000000 0.000000 
0.200000 0.500000 0.000000 
0.300000 0.000000 0.000000 
0.350000 0.000000 0.000000 
0.400000 0.000000 0.000000 
0.400000 0.500000 0.000000 
0.400000 1.000000 0.000000 
0.350000 1.000000 0.000000 
0.300000 1.000000 0.000000 
0.300000 0.500000 0.000000 
0.400000 0.000000 0.000000 
0.450000 0.000000 0.000000 
0.500000 0.000000 0.000000 
0.500000 0.500000 0.000000 
0.500000 1.000000 0.000000 
0.450000 1.000000 0.000000 
0.400000 1.000000 0.000000 
0.400000 0.500000 0.000000 
0.500000 0.000000 0.000000 
0.550000 0.000000 0.000000 
0.600000 0.000000 0.000000 
0.600000 0.500000 0.000000 
0.600000 1.000000 0.000000 
0.550000 1.000000 0.000000 
0.500000 1.000000 0.000000 
0.500000 0.500000 0.000000 
0.600000 0.000000 0.000000 
0.650000 0.000000 0.000000 
0.700000 0.000000 0.000000 
0.700000 0.500000 0.000000 
0.700000 1.000000 0.000000 
0.650000 1.000000 0.000000 
0.600000 1.000000 0.000000 
0.600000 0.500000 0.000000 
0.700000 0.000000 0.000000 
0.750000 0.000000 0.000000 
0.800000 0.000000 0.000000 
0.800000 0.500000 0.000000 
0.800000 1.000000 0.000000 
0.750000 1.000000 0.000000 
0.700000 1.000000 0.000000 
0.700000 0.500000 0.000000 
0.800000 0.000000 0.000000 
0.850000 0.000000 0.000000 
0.900000 0.000000 0.000000 
0.900000 0.500000 0.000000 
0.900000 1.000000 0.000000 
0.850000 1.000000 0.000000 
0.800000 1.000000 0.000000 
0.800000 0.500000 0.000000 
0.900000 0.000000 0.000000 
0.950000 0.000000 0.000000 
1.000000 0.000000 0.000000 
1.000000 0.500000 0.000000 
1.000000 1.000000 0.000000 
0.950000 1.000000 0.000000 
0.900000 1.000000 0.000000 
0.900000 0.500000 0.000000 
CELLS 10 90 
 8 0 1 2 3 4 5 6 7  
 8 8 9 10 11 12 13 14 15  
 8 16 17 18 19 20 21 22 23  
 8 24 25 26 27 28 29 30 31  
 8 32 33 34 35 36 37 38 39  
 8 40 41 42 43 44 45 46 47  
 8 48 49 50 51 52 53 54 55  
 8 56 57 58 59 60 61 62 63  
 8 64 65 66 67 68 69 70 71  
 8 72 73 74 75 76 77 78 79  
 
CELL_TYPES 10
7
7
7
7
7
7
7
7
7
7
CELL_DATA 10
FIELD FieldData 1
material 1 10 int
1
1
1
1
1
1
1
1
1
1
POINT_DATA 80 SCALARS flux_g1 double 
LOOKUP_TABLE   default 
2.83791575e-02
-1.01720115e-02
-5.89459649e-03
5.12099464e-02
-5.89459649e-03
-1.01720115e-02
2.83791575e-02
2.53546063e-02
-5.37618218e-03
-2.79745908e-03
-1.13164521e-05
3.30984993e-02
-1.13164521e-05
-2.79745908e-03
-5.37618218e-03
4.76245528e-02
3.84835811e-05
1.44646471e-03
2.87115516e-03
2.30408891e-02
2.87115516e-03
1.44646471e-03
3.84835811e-05
3.25071495e-02
2.90185548e-03
3.49963122e-03
4.10550682e-03
1.63810133e-02
4.10550682e-03
3.49963122e-03
2.90185548e-03
2.26858131e-02
4.12423822e-03
4.22698776e-03
4.33461123e-03
1.17854889e-02
4.33461123e-03
4.22698776e-03
4.12423822e-03
1.61643275e-02
4.34607892e-03
4.14835066e-03
3.95357103e-03
8.44293614e-03
3.95357103e-03
4.14835066e-03
4.34607892e-03
1.16528308e-02
3.96064283e-03
3.58192315e-03
3.20496613e-03
5.85539475e-03
3.20496613e-03
3.58192315e-03
3.96064283e-03
8.36112964e-03
3.20941040e-03
2.72392964e-03
2.23946432e-03
3.71370232e-03
2.23946432e-03
2.72392964e-03
3.20941040e-03
5.80398359e-03
2.24239250e-03
1.69768916e-03
1.15344339e-03
1.82023131e-03
1.15344339e-03
1.69768916e-03
2.24239250e-03
3.67982773e-03
1.15561541e-03
5.84457286e-04
1.02408762e-05
4.23800815e-05
1.02408762e-05
5.84457286e-04
1.15561541e-03
1.79525208e-03
 
