# vtk DataFile Version 3.0 
Date: 5/29/2016   Time: 9:15
ASCII 
DATASET UNSTRUCTURED_GRID 
 
POINTS 40 float 
0.000000 0.000000 0.000000 
0.100000 0.000000 0.000000 
0.100000 1.000000 0.000000 
0.000000 1.000000 0.000000 
0.100000 0.000000 0.000000 
0.200000 0.000000 0.000000 
0.200000 1.000000 0.000000 
0.100000 1.000000 0.000000 
0.200000 0.000000 0.000000 
0.300000 0.000000 0.000000 
0.300000 1.000000 0.000000 
0.200000 1.000000 0.000000 
0.300000 0.000000 0.000000 
0.400000 0.000000 0.000000 
0.400000 1.000000 0.000000 
0.300000 1.000000 0.000000 
0.400000 0.000000 0.000000 
0.500000 0.000000 0.000000 
0.500000 1.000000 0.000000 
0.400000 1.000000 0.000000 
0.500000 0.000000 0.000000 
0.600000 0.000000 0.000000 
0.600000 1.000000 0.000000 
0.500000 1.000000 0.000000 
0.600000 0.000000 0.000000 
0.700000 0.000000 0.000000 
0.700000 1.000000 0.000000 
0.600000 1.000000 0.000000 
0.700000 0.000000 0.000000 
0.800000 0.000000 0.000000 
0.800000 1.000000 0.000000 
0.700000 1.000000 0.000000 
0.800000 0.000000 0.000000 
0.900000 0.000000 0.000000 
0.900000 1.000000 0.000000 
0.800000 1.000000 0.000000 
0.900000 0.000000 0.000000 
1.000000 0.000000 0.000000 
1.000000 1.000000 0.000000 
0.900000 1.000000 0.000000 
CELLS 10 50 
 4 0 1 2 3  
 4 4 5 6 7  
 4 8 9 10 11  
 4 12 13 14 15  
 4 16 17 18 19  
 4 20 21 22 23  
 4 24 25 26 27  
 4 28 29 30 31  
 4 32 33 34 35  
 4 36 37 38 39  
 
CELL_TYPES 10
7
7
7
7
7
7
7
7
7
7
CELL_DATA 10
FIELD FieldData 1
material 1 10 int
1
1
1
1
1
1
1
1
1
1
POINT_DATA 40 SCALARS flux_g1 double 
LOOKUP_TABLE   default 
4.90906217e-02
-4.87824192e-03
-4.87824192e-03
4.90906217e-02
9.12984324e-03
1.08734743e-02
1.08734743e-02
9.12984324e-03
1.00947779e-02
8.74994853e-03
8.74994853e-03
1.00947779e-02
8.79505980e-03
7.65985547e-03
7.65985547e-03
8.79505980e-03
7.65723005e-03
6.51411236e-03
6.51411236e-03
7.65723005e-03
6.51429842e-03
5.37303844e-03
5.37303844e-03
6.51429842e-03
5.37303071e-03
4.23172848e-03
4.23172848e-03
5.37303071e-03
4.23178975e-03
3.08902976e-03
3.08902976e-03
4.23178975e-03
3.08868168e-03
1.94315764e-03
1.94315764e-03
3.08868168e-03
1.95085218e-03
7.11554709e-04
7.11554709e-04
1.95085218e-03
 
