# vtk DataFile Version 3.0 
Date: 5/29/2016   Time: 16:10
ASCII 
DATASET UNSTRUCTURED_GRID 
 
POINTS 80 float 
0.000000 0.000000 0.000000 
0.050000 0.000000 0.000000 
0.100000 0.000000 0.000000 
0.100000 0.500000 0.000000 
0.100000 1.000000 0.000000 
0.050000 1.000000 0.000000 
0.000000 1.000000 0.000000 
0.000000 0.500000 0.000000 
0.100000 0.000000 0.000000 
0.150000 0.000000 0.000000 
0.200000 0.000000 0.000000 
0.200000 0.500000 0.000000 
0.200000 1.000000 0.000000 
0.150000 1.000000 0.000000 
0.100000 1.000000 0.000000 
0.100000 0.500000 0.000000 
0.200000 0.000000 0.000000 
0.250000 0.000000 0.000000 
0.300000 0.000000 0.000000 
0.300000 0.500000 0.000000 
0.300000 1.000000 0.000000 
0.250000 1.000000 0.000000 
0.200000 1.000000 0.000000 
0.200000 0.500000 0.000000 
0.300000 0.000000 0.000000 
0.350000 0.000000 0.000000 
0.400000 0.000000 0.000000 
0.400000 0.500000 0.000000 
0.400000 1.000000 0.000000 
0.350000 1.000000 0.000000 
0.300000 1.000000 0.000000 
0.300000 0.500000 0.000000 
0.400000 0.000000 0.000000 
0.450000 0.000000 0.000000 
0.500000 0.000000 0.000000 
0.500000 0.500000 0.000000 
0.500000 1.000000 0.000000 
0.450000 1.000000 0.000000 
0.400000 1.000000 0.000000 
0.400000 0.500000 0.000000 
0.500000 0.000000 0.000000 
0.550000 0.000000 0.000000 
0.600000 0.000000 0.000000 
0.600000 0.500000 0.000000 
0.600000 1.000000 0.000000 
0.550000 1.000000 0.000000 
0.500000 1.000000 0.000000 
0.500000 0.500000 0.000000 
0.600000 0.000000 0.000000 
0.650000 0.000000 0.000000 
0.700000 0.000000 0.000000 
0.700000 0.500000 0.000000 
0.700000 1.000000 0.000000 
0.650000 1.000000 0.000000 
0.600000 1.000000 0.000000 
0.600000 0.500000 0.000000 
0.700000 0.000000 0.000000 
0.750000 0.000000 0.000000 
0.800000 0.000000 0.000000 
0.800000 0.500000 0.000000 
0.800000 1.000000 0.000000 
0.750000 1.000000 0.000000 
0.700000 1.000000 0.000000 
0.700000 0.500000 0.000000 
0.800000 0.000000 0.000000 
0.850000 0.000000 0.000000 
0.900000 0.000000 0.000000 
0.900000 0.500000 0.000000 
0.900000 1.000000 0.000000 
0.850000 1.000000 0.000000 
0.800000 1.000000 0.000000 
0.800000 0.500000 0.000000 
0.900000 0.000000 0.000000 
0.950000 0.000000 0.000000 
1.000000 0.000000 0.000000 
1.000000 0.500000 0.000000 
1.000000 1.000000 0.000000 
0.950000 1.000000 0.000000 
0.900000 1.000000 0.000000 
0.900000 0.500000 0.000000 
CELLS 10 90 
 8 0 1 2 3 4 5 6 7  
 8 8 9 10 11 12 13 14 15  
 8 16 17 18 19 20 21 22 23  
 8 24 25 26 27 28 29 30 31  
 8 32 33 34 35 36 37 38 39  
 8 40 41 42 43 44 45 46 47  
 8 48 49 50 51 52 53 54 55  
 8 56 57 58 59 60 61 62 63  
 8 64 65 66 67 68 69 70 71  
 8 72 73 74 75 76 77 78 79  
 
CELL_TYPES 10
7
7
7
7
7
7
7
7
7
7
CELL_DATA 10
FIELD FieldData 1
material 1 10 int
1
1
1
1
1
1
1
1
1
1
POINT_DATA 80 SCALARS flux_g1 double 
LOOKUP_TABLE   default 
2.70526670e-02
-6.91702562e-04
1.43302838e-02
1.23484625e-02
1.43302838e-02
-6.91702562e-04
2.70526670e-02
2.71347451e-02
1.30908303e-02
1.20299259e-02
1.12913576e-02
1.04350556e-02
1.12913576e-02
1.20299259e-02
1.30908303e-02
1.12221663e-02
1.12832891e-02
1.05147818e-02
9.75323702e-03
9.36426990e-03
9.75323702e-03
1.05147818e-02
1.12832891e-02
1.04256098e-02
9.75325539e-03
9.03163194e-03
8.31022078e-03
8.13362023e-03
8.31022078e-03
9.03163194e-03
9.75325539e-03
9.36352756e-03
8.31030476e-03
7.60818406e-03
6.90607321e-03
6.82592260e-03
6.90607321e-03
7.60818406e-03
8.31030476e-03
8.13335159e-03
6.90611351e-03
6.21279364e-03
5.51947574e-03
5.48315604e-03
5.51947574e-03
6.21279364e-03
6.90611351e-03
6.82580261e-03
5.51949414e-03
4.83016265e-03
4.14083213e-03
4.12448926e-03
4.14083213e-03
4.83016265e-03
5.51949414e-03
5.48310151e-03
4.14084048e-03
3.45330634e-03
2.76576962e-03
2.75866202e-03
2.76576962e-03
3.45330634e-03
4.14084048e-03
4.12446423e-03
2.76577098e-03
2.07905689e-03
1.39223812e-03
1.38968288e-03
1.39223812e-03
2.07905689e-03
2.76577098e-03
2.75864773e-03
1.39213881e-03
7.07131365e-04
1.82296476e-05
1.81935375e-05
1.82296476e-05
7.07131365e-04
1.39213881e-03
1.38958480e-03
 
