# vtk DataFile Version 3.0 
Date: 5/30/2016   Time: 4:58
ASCII 
DATASET UNSTRUCTURED_GRID 
 
POINTS 160 float 
0.000000 0.000000 0.000000 
0.025000 0.000000 0.000000 
0.050000 0.000000 0.000000 
0.050000 0.500000 0.000000 
0.050000 1.000000 0.000000 
0.025000 1.000000 0.000000 
0.000000 1.000000 0.000000 
0.000000 0.500000 0.000000 
0.050000 0.000000 0.000000 
0.075000 0.000000 0.000000 
0.100000 0.000000 0.000000 
0.100000 0.500000 0.000000 
0.100000 1.000000 0.000000 
0.075000 1.000000 0.000000 
0.050000 1.000000 0.000000 
0.050000 0.500000 0.000000 
0.100000 0.000000 0.000000 
0.125000 0.000000 0.000000 
0.150000 0.000000 0.000000 
0.150000 0.500000 0.000000 
0.150000 1.000000 0.000000 
0.125000 1.000000 0.000000 
0.100000 1.000000 0.000000 
0.100000 0.500000 0.000000 
0.150000 0.000000 0.000000 
0.175000 0.000000 0.000000 
0.200000 0.000000 0.000000 
0.200000 0.500000 0.000000 
0.200000 1.000000 0.000000 
0.175000 1.000000 0.000000 
0.150000 1.000000 0.000000 
0.150000 0.500000 0.000000 
0.200000 0.000000 0.000000 
0.225000 0.000000 0.000000 
0.250000 0.000000 0.000000 
0.250000 0.500000 0.000000 
0.250000 1.000000 0.000000 
0.225000 1.000000 0.000000 
0.200000 1.000000 0.000000 
0.200000 0.500000 0.000000 
0.250000 0.000000 0.000000 
0.275000 0.000000 0.000000 
0.300000 0.000000 0.000000 
0.300000 0.500000 0.000000 
0.300000 1.000000 0.000000 
0.275000 1.000000 0.000000 
0.250000 1.000000 0.000000 
0.250000 0.500000 0.000000 
0.300000 0.000000 0.000000 
0.325000 0.000000 0.000000 
0.350000 0.000000 0.000000 
0.350000 0.500000 0.000000 
0.350000 1.000000 0.000000 
0.325000 1.000000 0.000000 
0.300000 1.000000 0.000000 
0.300000 0.500000 0.000000 
0.350000 0.000000 0.000000 
0.375000 0.000000 0.000000 
0.400000 0.000000 0.000000 
0.400000 0.500000 0.000000 
0.400000 1.000000 0.000000 
0.375000 1.000000 0.000000 
0.350000 1.000000 0.000000 
0.350000 0.500000 0.000000 
0.400000 0.000000 0.000000 
0.425000 0.000000 0.000000 
0.450000 0.000000 0.000000 
0.450000 0.500000 0.000000 
0.450000 1.000000 0.000000 
0.425000 1.000000 0.000000 
0.400000 1.000000 0.000000 
0.400000 0.500000 0.000000 
0.450000 0.000000 0.000000 
0.475000 0.000000 0.000000 
0.500000 0.000000 0.000000 
0.500000 0.500000 0.000000 
0.500000 1.000000 0.000000 
0.475000 1.000000 0.000000 
0.450000 1.000000 0.000000 
0.450000 0.500000 0.000000 
0.500000 0.000000 0.000000 
0.525000 0.000000 0.000000 
0.550000 0.000000 0.000000 
0.550000 0.500000 0.000000 
0.550000 1.000000 0.000000 
0.525000 1.000000 0.000000 
0.500000 1.000000 0.000000 
0.500000 0.500000 0.000000 
0.550000 0.000000 0.000000 
0.575000 0.000000 0.000000 
0.600000 0.000000 0.000000 
0.600000 0.500000 0.000000 
0.600000 1.000000 0.000000 
0.575000 1.000000 0.000000 
0.550000 1.000000 0.000000 
0.550000 0.500000 0.000000 
0.600000 0.000000 0.000000 
0.625000 0.000000 0.000000 
0.650000 0.000000 0.000000 
0.650000 0.500000 0.000000 
0.650000 1.000000 0.000000 
0.625000 1.000000 0.000000 
0.600000 1.000000 0.000000 
0.600000 0.500000 0.000000 
0.650000 0.000000 0.000000 
0.675000 0.000000 0.000000 
0.700000 0.000000 0.000000 
0.700000 0.500000 0.000000 
0.700000 1.000000 0.000000 
0.675000 1.000000 0.000000 
0.650000 1.000000 0.000000 
0.650000 0.500000 0.000000 
0.700000 0.000000 0.000000 
0.725000 0.000000 0.000000 
0.750000 0.000000 0.000000 
0.750000 0.500000 0.000000 
0.750000 1.000000 0.000000 
0.725000 1.000000 0.000000 
0.700000 1.000000 0.000000 
0.700000 0.500000 0.000000 
0.750000 0.000000 0.000000 
0.775000 0.000000 0.000000 
0.800000 0.000000 0.000000 
0.800000 0.500000 0.000000 
0.800000 1.000000 0.000000 
0.775000 1.000000 0.000000 
0.750000 1.000000 0.000000 
0.750000 0.500000 0.000000 
0.800000 0.000000 0.000000 
0.825000 0.000000 0.000000 
0.850000 0.000000 0.000000 
0.850000 0.500000 0.000000 
0.850000 1.000000 0.000000 
0.825000 1.000000 0.000000 
0.800000 1.000000 0.000000 
0.800000 0.500000 0.000000 
0.850000 0.000000 0.000000 
0.875000 0.000000 0.000000 
0.900000 0.000000 0.000000 
0.900000 0.500000 0.000000 
0.900000 1.000000 0.000000 
0.875000 1.000000 0.000000 
0.850000 1.000000 0.000000 
0.850000 0.500000 0.000000 
0.900000 0.000000 0.000000 
0.925000 0.000000 0.000000 
0.950000 0.000000 0.000000 
0.950000 0.500000 0.000000 
0.950000 1.000000 0.000000 
0.925000 1.000000 0.000000 
0.900000 1.000000 0.000000 
0.900000 0.500000 0.000000 
0.950000 0.000000 0.000000 
0.975000 0.000000 0.000000 
1.000000 0.000000 0.000000 
1.000000 0.500000 0.000000 
1.000000 1.000000 0.000000 
0.975000 1.000000 0.000000 
0.950000 1.000000 0.000000 
0.950000 0.500000 0.000000 
CELLS 20 180 
 8 0 1 2 3 4 5 6 7  
 8 8 9 10 11 12 13 14 15  
 8 16 17 18 19 20 21 22 23  
 8 24 25 26 27 28 29 30 31  
 8 32 33 34 35 36 37 38 39  
 8 40 41 42 43 44 45 46 47  
 8 48 49 50 51 52 53 54 55  
 8 56 57 58 59 60 61 62 63  
 8 64 65 66 67 68 69 70 71  
 8 72 73 74 75 76 77 78 79  
 8 80 81 82 83 84 85 86 87  
 8 88 89 90 91 92 93 94 95  
 8 96 97 98 99 100 101 102 103  
 8 104 105 106 107 108 109 110 111  
 8 112 113 114 115 116 117 118 119  
 8 120 121 122 123 124 125 126 127  
 8 128 129 130 131 132 133 134 135  
 8 136 137 138 139 140 141 142 143  
 8 144 145 146 147 148 149 150 151  
 8 152 153 154 155 156 157 158 159  
 
CELL_TYPES 20
7
7
7
7
7
7
7
7
7
7
7
7
7
7
7
7
7
7
7
7
CELL_DATA 20
FIELD FieldData 1
material 1 20 int
1
1
1
1
1
1
1
1
1
1
1
1
1
1
1
1
1
1
1
1
POINT_DATA 160 SCALARS flux_g1 double 
LOOKUP_TABLE   default 
3.44636367e-02
-8.25884652e-03
3.10622564e-02
-3.52057082e-03
3.10622564e-02
-8.25884652e-03
3.44636367e-02
4.25509943e-02
2.04016717e-02
1.77410191e-02
1.72438250e-02
1.92567392e-03
1.72438250e-02
1.77410191e-02
2.04016717e-02
-1.34994219e-03
1.69168315e-02
1.58340017e-02
1.48310166e-02
4.19739779e-03
1.48310166e-02
1.58340017e-02
1.69168315e-02
1.81967824e-03
1.47235493e-02
1.38985629e-02
1.30738459e-02
5.69170705e-03
1.30738459e-02
1.38985629e-02
1.47235493e-02
4.19530063e-03
1.30049053e-02
1.23332320e-02
1.16592401e-02
6.52764807e-03
1.16592401e-02
1.23332320e-02
1.30049053e-02
5.68760470e-03
1.16114375e-02
1.10446459e-02
1.04760901e-02
6.90916633e-03
1.04760901e-02
1.10446459e-02
1.16114375e-02
6.52500008e-03
1.04428770e-02
9.94892442e-03
9.45373750e-03
6.97443925e-03
9.45373750e-03
9.94892442e-03
1.04428770e-02
6.90731272e-03
9.43064962e-03
8.98732002e-03
8.54313189e-03
6.81991397e-03
8.54313189e-03
8.98732002e-03
9.43064962e-03
6.97315169e-03
8.52708156e-03
8.11893686e-03
7.71019545e-03
6.51261776e-03
7.71019545e-03
8.11893686e-03
8.52708156e-03
6.81901881e-03
7.69903623e-03
7.31534378e-03
6.93123669e-03
6.09915111e-03
6.93123669e-03
7.31534378e-03
7.69903623e-03
6.51199539e-03
6.92347631e-03
6.55677338e-03
6.18978242e-03
5.61191662e-03
6.18978242e-03
6.55677338e-03
6.92347631e-03
6.09871830e-03
6.18438312e-03
5.82947893e-03
5.47437480e-03
5.07345223e-03
5.47437480e-03
5.82947893e-03
6.18438312e-03
5.61161549e-03
5.47061454e-03
5.12389609e-03
4.77703906e-03
4.49944510e-03
4.77703906e-03
5.12389609e-03
5.47061454e-03
5.07324251e-03
4.77441499e-03
4.43336393e-03
4.09221709e-03
3.90082944e-03
4.09221709e-03
4.43336393e-03
4.77441499e-03
4.49929875e-03
4.09037831e-03
3.75323414e-03
3.41602417e-03
3.28524863e-03
3.41602417e-03
3.75323414e-03
4.09037831e-03
3.90072688e-03
3.41472476e-03
3.08024958e-03
2.74572953e-03
2.65807715e-03
2.74572953e-03
3.08024958e-03
3.41472476e-03
3.28517618e-03
2.74479559e-03
2.41210924e-03
2.07938929e-03
2.02313995e-03
2.07938929e-03
2.41210924e-03
2.74479559e-03
2.65802480e-03
2.07869002e-03
1.74718328e-03
1.41558224e-03
1.38316946e-03
1.41558224e-03
1.74718328e-03
2.07869002e-03
2.02310466e-03
1.41497588e-03
1.08450397e-03
7.52739471e-04
7.40152875e-04
7.52739471e-04
1.08450397e-03
1.41497588e-03
1.38308087e-03
7.50444350e-04
4.30317902e-04
8.53634303e-05
8.11380455e-05
8.53634303e-05
4.30317902e-04
7.50444350e-04
7.40810451e-04
 
