# vtk DataFile Version 3.0 
Date: 5/30/2016   Time: 1:27
ASCII 
DATASET UNSTRUCTURED_GRID 
 
POINTS 160 float 
0.000000 0.000000 0.000000 
0.025000 0.000000 0.000000 
0.050000 0.000000 0.000000 
0.050000 0.500000 0.000000 
0.050000 1.000000 0.000000 
0.025000 1.000000 0.000000 
0.000000 1.000000 0.000000 
0.000000 0.500000 0.000000 
0.050000 0.000000 0.000000 
0.075000 0.000000 0.000000 
0.100000 0.000000 0.000000 
0.100000 0.500000 0.000000 
0.100000 1.000000 0.000000 
0.075000 1.000000 0.000000 
0.050000 1.000000 0.000000 
0.050000 0.500000 0.000000 
0.100000 0.000000 0.000000 
0.125000 0.000000 0.000000 
0.150000 0.000000 0.000000 
0.150000 0.500000 0.000000 
0.150000 1.000000 0.000000 
0.125000 1.000000 0.000000 
0.100000 1.000000 0.000000 
0.100000 0.500000 0.000000 
0.150000 0.000000 0.000000 
0.175000 0.000000 0.000000 
0.200000 0.000000 0.000000 
0.200000 0.500000 0.000000 
0.200000 1.000000 0.000000 
0.175000 1.000000 0.000000 
0.150000 1.000000 0.000000 
0.150000 0.500000 0.000000 
0.200000 0.000000 0.000000 
0.225000 0.000000 0.000000 
0.250000 0.000000 0.000000 
0.250000 0.500000 0.000000 
0.250000 1.000000 0.000000 
0.225000 1.000000 0.000000 
0.200000 1.000000 0.000000 
0.200000 0.500000 0.000000 
0.250000 0.000000 0.000000 
0.275000 0.000000 0.000000 
0.300000 0.000000 0.000000 
0.300000 0.500000 0.000000 
0.300000 1.000000 0.000000 
0.275000 1.000000 0.000000 
0.250000 1.000000 0.000000 
0.250000 0.500000 0.000000 
0.300000 0.000000 0.000000 
0.325000 0.000000 0.000000 
0.350000 0.000000 0.000000 
0.350000 0.500000 0.000000 
0.350000 1.000000 0.000000 
0.325000 1.000000 0.000000 
0.300000 1.000000 0.000000 
0.300000 0.500000 0.000000 
0.350000 0.000000 0.000000 
0.375000 0.000000 0.000000 
0.400000 0.000000 0.000000 
0.400000 0.500000 0.000000 
0.400000 1.000000 0.000000 
0.375000 1.000000 0.000000 
0.350000 1.000000 0.000000 
0.350000 0.500000 0.000000 
0.400000 0.000000 0.000000 
0.425000 0.000000 0.000000 
0.450000 0.000000 0.000000 
0.450000 0.500000 0.000000 
0.450000 1.000000 0.000000 
0.425000 1.000000 0.000000 
0.400000 1.000000 0.000000 
0.400000 0.500000 0.000000 
0.450000 0.000000 0.000000 
0.475000 0.000000 0.000000 
0.500000 0.000000 0.000000 
0.500000 0.500000 0.000000 
0.500000 1.000000 0.000000 
0.475000 1.000000 0.000000 
0.450000 1.000000 0.000000 
0.450000 0.500000 0.000000 
0.500000 0.000000 0.000000 
0.525000 0.000000 0.000000 
0.550000 0.000000 0.000000 
0.550000 0.500000 0.000000 
0.550000 1.000000 0.000000 
0.525000 1.000000 0.000000 
0.500000 1.000000 0.000000 
0.500000 0.500000 0.000000 
0.550000 0.000000 0.000000 
0.575000 0.000000 0.000000 
0.600000 0.000000 0.000000 
0.600000 0.500000 0.000000 
0.600000 1.000000 0.000000 
0.575000 1.000000 0.000000 
0.550000 1.000000 0.000000 
0.550000 0.500000 0.000000 
0.600000 0.000000 0.000000 
0.625000 0.000000 0.000000 
0.650000 0.000000 0.000000 
0.650000 0.500000 0.000000 
0.650000 1.000000 0.000000 
0.625000 1.000000 0.000000 
0.600000 1.000000 0.000000 
0.600000 0.500000 0.000000 
0.650000 0.000000 0.000000 
0.675000 0.000000 0.000000 
0.700000 0.000000 0.000000 
0.700000 0.500000 0.000000 
0.700000 1.000000 0.000000 
0.675000 1.000000 0.000000 
0.650000 1.000000 0.000000 
0.650000 0.500000 0.000000 
0.700000 0.000000 0.000000 
0.725000 0.000000 0.000000 
0.750000 0.000000 0.000000 
0.750000 0.500000 0.000000 
0.750000 1.000000 0.000000 
0.725000 1.000000 0.000000 
0.700000 1.000000 0.000000 
0.700000 0.500000 0.000000 
0.750000 0.000000 0.000000 
0.775000 0.000000 0.000000 
0.800000 0.000000 0.000000 
0.800000 0.500000 0.000000 
0.800000 1.000000 0.000000 
0.775000 1.000000 0.000000 
0.750000 1.000000 0.000000 
0.750000 0.500000 0.000000 
0.800000 0.000000 0.000000 
0.825000 0.000000 0.000000 
0.850000 0.000000 0.000000 
0.850000 0.500000 0.000000 
0.850000 1.000000 0.000000 
0.825000 1.000000 0.000000 
0.800000 1.000000 0.000000 
0.800000 0.500000 0.000000 
0.850000 0.000000 0.000000 
0.875000 0.000000 0.000000 
0.900000 0.000000 0.000000 
0.900000 0.500000 0.000000 
0.900000 1.000000 0.000000 
0.875000 1.000000 0.000000 
0.850000 1.000000 0.000000 
0.850000 0.500000 0.000000 
0.900000 0.000000 0.000000 
0.925000 0.000000 0.000000 
0.950000 0.000000 0.000000 
0.950000 0.500000 0.000000 
0.950000 1.000000 0.000000 
0.925000 1.000000 0.000000 
0.900000 1.000000 0.000000 
0.900000 0.500000 0.000000 
0.950000 0.000000 0.000000 
0.975000 0.000000 0.000000 
1.000000 0.000000 0.000000 
1.000000 0.500000 0.000000 
1.000000 1.000000 0.000000 
0.975000 1.000000 0.000000 
0.950000 1.000000 0.000000 
0.950000 0.500000 0.000000 
CELLS 20 180 
 8 0 1 2 3 4 5 6 7  
 8 8 9 10 11 12 13 14 15  
 8 16 17 18 19 20 21 22 23  
 8 24 25 26 27 28 29 30 31  
 8 32 33 34 35 36 37 38 39  
 8 40 41 42 43 44 45 46 47  
 8 48 49 50 51 52 53 54 55  
 8 56 57 58 59 60 61 62 63  
 8 64 65 66 67 68 69 70 71  
 8 72 73 74 75 76 77 78 79  
 8 80 81 82 83 84 85 86 87  
 8 88 89 90 91 92 93 94 95  
 8 96 97 98 99 100 101 102 103  
 8 104 105 106 107 108 109 110 111  
 8 112 113 114 115 116 117 118 119  
 8 120 121 122 123 124 125 126 127  
 8 128 129 130 131 132 133 134 135  
 8 136 137 138 139 140 141 142 143  
 8 144 145 146 147 148 149 150 151  
 8 152 153 154 155 156 157 158 159  
 
CELL_TYPES 20
7
7
7
7
7
7
7
7
7
7
7
7
7
7
7
7
7
7
7
7
CELL_DATA 20
FIELD FieldData 1
material 1 20 int
1
1
1
1
1
1
1
1
1
1
1
1
1
1
1
1
1
1
1
1
POINT_DATA 160 SCALARS flux_g1 double 
LOOKUP_TABLE   default 
1.12934175e-01
-6.11363088e-02
2.89262800e-02
2.89262803e-02
2.89262800e-02
-6.11363088e-02
1.12934175e-01
1.12934175e-01
1.81264614e-02
6.73406073e-03
1.20133674e-02
1.20133678e-02
1.20133674e-02
6.73406073e-03
1.81264614e-02
1.81264617e-02
1.13341300e-02
1.02656591e-02
1.03034965e-02
1.03034970e-02
1.03034965e-02
1.02656591e-02
1.13341300e-02
1.13341304e-02
1.02599776e-02
9.89815324e-03
9.62776716e-03
9.62776773e-03
9.62776716e-03
9.89815324e-03
1.02599776e-02
1.02599781e-02
9.62472076e-03
9.32875543e-03
9.04730284e-03
9.04730349e-03
9.04730284e-03
9.32875543e-03
9.62472076e-03
9.62472133e-03
9.04699000e-03
8.76377543e-03
8.48527022e-03
8.48527094e-03
8.48527022e-03
8.76377543e-03
9.04699000e-03
9.04699066e-03
8.48519935e-03
8.20652862e-03
7.92989691e-03
7.92989769e-03
7.92989691e-03
8.20652862e-03
8.48519935e-03
8.48520007e-03
7.92986946e-03
7.65320611e-03
7.37750441e-03
7.37750523e-03
7.37750441e-03
7.65320611e-03
7.92986946e-03
7.92987024e-03
7.37749185e-03
7.10177932e-03
6.82653650e-03
6.82653734e-03
6.82653650e-03
7.10177932e-03
7.37749185e-03
7.37749266e-03
6.82653037e-03
6.55128302e-03
6.27626719e-03
6.27626804e-03
6.27626719e-03
6.55128302e-03
6.82653037e-03
6.82653121e-03
6.27626401e-03
6.00124620e-03
5.72633711e-03
5.72633795e-03
5.72633711e-03
6.00124620e-03
6.27626401e-03
6.27626486e-03
5.72633523e-03
5.45142539e-03
5.17655213e-03
5.17655295e-03
5.17655213e-03
5.45142539e-03
5.72633523e-03
5.72633607e-03
5.17655064e-03
4.90167742e-03
4.62678348e-03
4.62678425e-03
4.62678348e-03
4.90167742e-03
5.17655064e-03
5.17655146e-03
4.62678163e-03
4.35188863e-03
4.07690316e-03
4.07690388e-03
4.07690316e-03
4.35188863e-03
4.62678163e-03
4.62678241e-03
4.07689990e-03
3.80191716e-03
3.52671324e-03
3.52671389e-03
3.52671324e-03
3.80191716e-03
4.07689990e-03
4.07690062e-03
3.52670629e-03
3.25150999e-03
2.97581374e-03
2.97581431e-03
2.97581374e-03
3.25150999e-03
3.52670629e-03
3.52670694e-03
2.97579696e-03
2.70012612e-03
2.42326830e-03
2.42326878e-03
2.42326830e-03
2.70012612e-03
2.97579696e-03
2.97579753e-03
2.42321895e-03
2.14649049e-03
1.86653135e-03
1.86653173e-03
1.86653135e-03
2.14649049e-03
2.42321895e-03
2.42321943e-03
1.86630256e-03
1.58757813e-03
1.29639972e-03
1.29639998e-03
1.29639972e-03
1.58757813e-03
1.86630256e-03
1.86630294e-03
1.29419303e-03
1.02260947e-03
6.50449733e-04
6.50449863e-04
6.50449733e-04
1.02260947e-03
1.29419303e-03
1.29419329e-03
 
