# vtk DataFile Version 3.0 
Date: 5/29/2016   Time: 9:27
ASCII 
DATASET UNSTRUCTURED_GRID 
 
POINTS 80 float 
0.000000 0.000000 0.000000 
0.050000 0.000000 0.000000 
0.100000 0.000000 0.000000 
0.100000 0.500000 0.000000 
0.100000 1.000000 0.000000 
0.050000 1.000000 0.000000 
0.000000 1.000000 0.000000 
0.000000 0.500000 0.000000 
0.100000 0.000000 0.000000 
0.150000 0.000000 0.000000 
0.200000 0.000000 0.000000 
0.200000 0.500000 0.000000 
0.200000 1.000000 0.000000 
0.150000 1.000000 0.000000 
0.100000 1.000000 0.000000 
0.100000 0.500000 0.000000 
0.200000 0.000000 0.000000 
0.250000 0.000000 0.000000 
0.300000 0.000000 0.000000 
0.300000 0.500000 0.000000 
0.300000 1.000000 0.000000 
0.250000 1.000000 0.000000 
0.200000 1.000000 0.000000 
0.200000 0.500000 0.000000 
0.300000 0.000000 0.000000 
0.350000 0.000000 0.000000 
0.400000 0.000000 0.000000 
0.400000 0.500000 0.000000 
0.400000 1.000000 0.000000 
0.350000 1.000000 0.000000 
0.300000 1.000000 0.000000 
0.300000 0.500000 0.000000 
0.400000 0.000000 0.000000 
0.450000 0.000000 0.000000 
0.500000 0.000000 0.000000 
0.500000 0.500000 0.000000 
0.500000 1.000000 0.000000 
0.450000 1.000000 0.000000 
0.400000 1.000000 0.000000 
0.400000 0.500000 0.000000 
0.500000 0.000000 0.000000 
0.550000 0.000000 0.000000 
0.600000 0.000000 0.000000 
0.600000 0.500000 0.000000 
0.600000 1.000000 0.000000 
0.550000 1.000000 0.000000 
0.500000 1.000000 0.000000 
0.500000 0.500000 0.000000 
0.600000 0.000000 0.000000 
0.650000 0.000000 0.000000 
0.700000 0.000000 0.000000 
0.700000 0.500000 0.000000 
0.700000 1.000000 0.000000 
0.650000 1.000000 0.000000 
0.600000 1.000000 0.000000 
0.600000 0.500000 0.000000 
0.700000 0.000000 0.000000 
0.750000 0.000000 0.000000 
0.800000 0.000000 0.000000 
0.800000 0.500000 0.000000 
0.800000 1.000000 0.000000 
0.750000 1.000000 0.000000 
0.700000 1.000000 0.000000 
0.700000 0.500000 0.000000 
0.800000 0.000000 0.000000 
0.850000 0.000000 0.000000 
0.900000 0.000000 0.000000 
0.900000 0.500000 0.000000 
0.900000 1.000000 0.000000 
0.850000 1.000000 0.000000 
0.800000 1.000000 0.000000 
0.800000 0.500000 0.000000 
0.900000 0.000000 0.000000 
0.950000 0.000000 0.000000 
1.000000 0.000000 0.000000 
1.000000 0.500000 0.000000 
1.000000 1.000000 0.000000 
0.950000 1.000000 0.000000 
0.900000 1.000000 0.000000 
0.900000 0.500000 0.000000 
CELLS 10 90 
 8 0 1 2 3 4 5 6 7  
 8 8 9 10 11 12 13 14 15  
 8 16 17 18 19 20 21 22 23  
 8 24 25 26 27 28 29 30 31  
 8 32 33 34 35 36 37 38 39  
 8 40 41 42 43 44 45 46 47  
 8 48 49 50 51 52 53 54 55  
 8 56 57 58 59 60 61 62 63  
 8 64 65 66 67 68 69 70 71  
 8 72 73 74 75 76 77 78 79  
 
CELL_TYPES 10
7
7
7
7
7
7
7
7
7
7
CELL_DATA 10
FIELD FieldData 1
material 1 10 int
1
1
1
1
1
1
1
1
1
1
POINT_DATA 80 SCALARS flux_g1 double 
LOOKUP_TABLE   default 
8.96126971e-02
-4.70804583e-02
8.13217237e-03
5.49892965e-02
8.13217237e-03
-4.70804583e-02
8.96126971e-02
5.79992768e-02
1.25030200e-02
6.10718411e-03
9.04846127e-03
1.32703337e-02
9.04846127e-03
6.10718411e-03
1.25030200e-02
1.70723203e-02
9.11559654e-03
8.38956013e-03
8.13683796e-03
9.53613017e-03
8.13683796e-03
8.38956013e-03
9.11559654e-03
1.12521462e-02
8.16004070e-03
7.68396833e-03
7.20989784e-03
7.90327390e-03
7.20989784e-03
7.68396833e-03
8.16004070e-03
9.28556652e-03
7.21900308e-03
6.71683345e-03
6.20156056e-03
6.57076052e-03
6.20156056e-03
6.71683345e-03
7.21900308e-03
7.81847818e-03
6.20625751e-03
5.68131026e-03
5.14825878e-03
5.34671034e-03
5.14825878e-03
5.68131026e-03
6.20625751e-03
6.52814387e-03
5.15078182e-03
4.61296380e-03
4.07040047e-03
4.17665201e-03
4.07040047e-03
4.61296380e-03
5.15078182e-03
5.32388925e-03
4.07178698e-03
3.52689039e-03
2.97806891e-03
3.03339287e-03
2.97806891e-03
3.52689039e-03
4.07178698e-03
4.16410808e-03
2.97888622e-03
2.43082518e-03
1.87086910e-03
1.89408219e-03
1.87086910e-03
2.43082518e-03
2.97888622e-03
3.02546924e-03
1.87467801e-03
1.33965467e-03
6.56705174e-04
6.84844996e-04
6.56705174e-04
1.33965467e-03
1.87467801e-03
1.87436307e-03
 
