# vtk DataFile Version 3.0 
Date: 5/30/2016   Time: 1:12
ASCII 
DATASET UNSTRUCTURED_GRID 
 
POINTS 160 float 
0.000000 0.000000 0.000000 
0.025000 0.000000 0.000000 
0.050000 0.000000 0.000000 
0.050000 0.500000 0.000000 
0.050000 1.000000 0.000000 
0.025000 1.000000 0.000000 
0.000000 1.000000 0.000000 
0.000000 0.500000 0.000000 
0.050000 0.000000 0.000000 
0.075000 0.000000 0.000000 
0.100000 0.000000 0.000000 
0.100000 0.500000 0.000000 
0.100000 1.000000 0.000000 
0.075000 1.000000 0.000000 
0.050000 1.000000 0.000000 
0.050000 0.500000 0.000000 
0.100000 0.000000 0.000000 
0.125000 0.000000 0.000000 
0.150000 0.000000 0.000000 
0.150000 0.500000 0.000000 
0.150000 1.000000 0.000000 
0.125000 1.000000 0.000000 
0.100000 1.000000 0.000000 
0.100000 0.500000 0.000000 
0.150000 0.000000 0.000000 
0.175000 0.000000 0.000000 
0.200000 0.000000 0.000000 
0.200000 0.500000 0.000000 
0.200000 1.000000 0.000000 
0.175000 1.000000 0.000000 
0.150000 1.000000 0.000000 
0.150000 0.500000 0.000000 
0.200000 0.000000 0.000000 
0.225000 0.000000 0.000000 
0.250000 0.000000 0.000000 
0.250000 0.500000 0.000000 
0.250000 1.000000 0.000000 
0.225000 1.000000 0.000000 
0.200000 1.000000 0.000000 
0.200000 0.500000 0.000000 
0.250000 0.000000 0.000000 
0.275000 0.000000 0.000000 
0.300000 0.000000 0.000000 
0.300000 0.500000 0.000000 
0.300000 1.000000 0.000000 
0.275000 1.000000 0.000000 
0.250000 1.000000 0.000000 
0.250000 0.500000 0.000000 
0.300000 0.000000 0.000000 
0.325000 0.000000 0.000000 
0.350000 0.000000 0.000000 
0.350000 0.500000 0.000000 
0.350000 1.000000 0.000000 
0.325000 1.000000 0.000000 
0.300000 1.000000 0.000000 
0.300000 0.500000 0.000000 
0.350000 0.000000 0.000000 
0.375000 0.000000 0.000000 
0.400000 0.000000 0.000000 
0.400000 0.500000 0.000000 
0.400000 1.000000 0.000000 
0.375000 1.000000 0.000000 
0.350000 1.000000 0.000000 
0.350000 0.500000 0.000000 
0.400000 0.000000 0.000000 
0.425000 0.000000 0.000000 
0.450000 0.000000 0.000000 
0.450000 0.500000 0.000000 
0.450000 1.000000 0.000000 
0.425000 1.000000 0.000000 
0.400000 1.000000 0.000000 
0.400000 0.500000 0.000000 
0.450000 0.000000 0.000000 
0.475000 0.000000 0.000000 
0.500000 0.000000 0.000000 
0.500000 0.500000 0.000000 
0.500000 1.000000 0.000000 
0.475000 1.000000 0.000000 
0.450000 1.000000 0.000000 
0.450000 0.500000 0.000000 
0.500000 0.000000 0.000000 
0.525000 0.000000 0.000000 
0.550000 0.000000 0.000000 
0.550000 0.500000 0.000000 
0.550000 1.000000 0.000000 
0.525000 1.000000 0.000000 
0.500000 1.000000 0.000000 
0.500000 0.500000 0.000000 
0.550000 0.000000 0.000000 
0.575000 0.000000 0.000000 
0.600000 0.000000 0.000000 
0.600000 0.500000 0.000000 
0.600000 1.000000 0.000000 
0.575000 1.000000 0.000000 
0.550000 1.000000 0.000000 
0.550000 0.500000 0.000000 
0.600000 0.000000 0.000000 
0.625000 0.000000 0.000000 
0.650000 0.000000 0.000000 
0.650000 0.500000 0.000000 
0.650000 1.000000 0.000000 
0.625000 1.000000 0.000000 
0.600000 1.000000 0.000000 
0.600000 0.500000 0.000000 
0.650000 0.000000 0.000000 
0.675000 0.000000 0.000000 
0.700000 0.000000 0.000000 
0.700000 0.500000 0.000000 
0.700000 1.000000 0.000000 
0.675000 1.000000 0.000000 
0.650000 1.000000 0.000000 
0.650000 0.500000 0.000000 
0.700000 0.000000 0.000000 
0.725000 0.000000 0.000000 
0.750000 0.000000 0.000000 
0.750000 0.500000 0.000000 
0.750000 1.000000 0.000000 
0.725000 1.000000 0.000000 
0.700000 1.000000 0.000000 
0.700000 0.500000 0.000000 
0.750000 0.000000 0.000000 
0.775000 0.000000 0.000000 
0.800000 0.000000 0.000000 
0.800000 0.500000 0.000000 
0.800000 1.000000 0.000000 
0.775000 1.000000 0.000000 
0.750000 1.000000 0.000000 
0.750000 0.500000 0.000000 
0.800000 0.000000 0.000000 
0.825000 0.000000 0.000000 
0.850000 0.000000 0.000000 
0.850000 0.500000 0.000000 
0.850000 1.000000 0.000000 
0.825000 1.000000 0.000000 
0.800000 1.000000 0.000000 
0.800000 0.500000 0.000000 
0.850000 0.000000 0.000000 
0.875000 0.000000 0.000000 
0.900000 0.000000 0.000000 
0.900000 0.500000 0.000000 
0.900000 1.000000 0.000000 
0.875000 1.000000 0.000000 
0.850000 1.000000 0.000000 
0.850000 0.500000 0.000000 
0.900000 0.000000 0.000000 
0.925000 0.000000 0.000000 
0.950000 0.000000 0.000000 
0.950000 0.500000 0.000000 
0.950000 1.000000 0.000000 
0.925000 1.000000 0.000000 
0.900000 1.000000 0.000000 
0.900000 0.500000 0.000000 
0.950000 0.000000 0.000000 
0.975000 0.000000 0.000000 
1.000000 0.000000 0.000000 
1.000000 0.500000 0.000000 
1.000000 1.000000 0.000000 
0.975000 1.000000 0.000000 
0.950000 1.000000 0.000000 
0.950000 0.500000 0.000000 
CELLS 20 180 
 8 0 1 2 3 4 5 6 7  
 8 8 9 10 11 12 13 14 15  
 8 16 17 18 19 20 21 22 23  
 8 24 25 26 27 28 29 30 31  
 8 32 33 34 35 36 37 38 39  
 8 40 41 42 43 44 45 46 47  
 8 48 49 50 51 52 53 54 55  
 8 56 57 58 59 60 61 62 63  
 8 64 65 66 67 68 69 70 71  
 8 72 73 74 75 76 77 78 79  
 8 80 81 82 83 84 85 86 87  
 8 88 89 90 91 92 93 94 95  
 8 96 97 98 99 100 101 102 103  
 8 104 105 106 107 108 109 110 111  
 8 112 113 114 115 116 117 118 119  
 8 120 121 122 123 124 125 126 127  
 8 128 129 130 131 132 133 134 135  
 8 136 137 138 139 140 141 142 143  
 8 144 145 146 147 148 149 150 151  
 8 152 153 154 155 156 157 158 159  
 
CELL_TYPES 20
7
7
7
7
7
7
7
7
7
7
7
7
7
7
7
7
7
7
7
7
CELL_DATA 20
FIELD FieldData 1
material 1 20 int
1
1
1
1
1
1
1
1
1
1
1
1
1
1
1
1
1
1
1
1
POINT_DATA 160 SCALARS flux_g1 double 
LOOKUP_TABLE   default 
2.14401927e-01
8.66833533e-02
5.98923599e-02
5.98923600e-02
5.98923599e-02
8.66833533e-02
2.14401927e-01
2.14401927e-01
5.85938759e-02
2.92715583e-02
2.27821629e-02
2.27821630e-02
2.27821629e-02
2.92715583e-02
5.85938759e-02
5.85938760e-02
2.24889406e-02
1.54325127e-02
1.36073576e-02
1.36073577e-02
1.36073576e-02
1.54325127e-02
2.24889406e-02
2.24889407e-02
1.35405553e-02
1.15891573e-02
1.08806594e-02
1.08806595e-02
1.08806594e-02
1.15891573e-02
1.35405553e-02
1.35405554e-02
1.08650573e-02
1.01289642e-02
9.71829346e-03
9.71829357e-03
9.71829346e-03
1.01289642e-02
1.08650573e-02
1.08650574e-02
9.71439766e-03
9.29803828e-03
8.98702309e-03
8.98702320e-03
8.98702309e-03
9.29803828e-03
9.71439766e-03
9.71439776e-03
8.98588560e-03
8.67393606e-03
8.40859830e-03
8.40859841e-03
8.40859830e-03
8.67393606e-03
8.98588560e-03
8.98588571e-03
8.40816284e-03
8.14284927e-03
7.90463442e-03
7.90463454e-03
7.90463442e-03
8.14284927e-03
8.40816284e-03
8.40816295e-03
7.90441016e-03
7.66636230e-03
7.44662856e-03
7.44662868e-03
7.44662856e-03
7.66636230e-03
7.90441016e-03
7.90441027e-03
7.44648680e-03
7.22690320e-03
7.02050849e-03
7.02050861e-03
7.02050849e-03
7.22690320e-03
7.44648680e-03
7.44648692e-03
7.02040835e-03
6.81412615e-03
6.61754682e-03
6.61754693e-03
6.61754682e-03
6.81412615e-03
7.02040835e-03
7.02040846e-03
6.61747111e-03
6.42097157e-03
6.23158724e-03
6.23158736e-03
6.23158724e-03
6.42097157e-03
6.61747111e-03
6.61747123e-03
6.23152652e-03
6.04219627e-03
5.85792565e-03
5.85792576e-03
5.85792565e-03
6.04219627e-03
6.23152652e-03
6.23152664e-03
5.85787354e-03
5.67363627e-03
5.49270055e-03
5.49270066e-03
5.49270055e-03
5.67363627e-03
5.85787354e-03
5.85787366e-03
5.49265183e-03
5.31173155e-03
5.13246002e-03
5.13246013e-03
5.13246002e-03
5.31173155e-03
5.49265183e-03
5.49265194e-03
5.13240902e-03
4.95313684e-03
4.77374046e-03
4.77374056e-03
4.77374046e-03
4.95313684e-03
5.13240902e-03
5.13240912e-03
4.77367764e-03
4.59427005e-03
4.41240082e-03
4.41240091e-03
4.41240082e-03
4.59427005e-03
4.77367764e-03
4.77367773e-03
4.41230048e-03
4.23044005e-03
4.04183744e-03
4.04183752e-03
4.04183744e-03
4.23044005e-03
4.41230048e-03
4.41230057e-03
4.04160625e-03
3.85318456e-03
3.64641789e-03
3.64641796e-03
3.64641789e-03
3.85318456e-03
4.04160625e-03
4.04160633e-03
3.64566996e-03
3.43996354e-03
3.17411812e-03
3.17411817e-03
3.17411812e-03
3.43996354e-03
3.64566996e-03
3.64567003e-03
 
