# vtk DataFile Version 3.0 
Date: 5/29/2016   Time: 9:20
ASCII 
DATASET UNSTRUCTURED_GRID 
 
POINTS 80 float 
0.000000 0.000000 0.000000 
0.050000 0.000000 0.000000 
0.100000 0.000000 0.000000 
0.100000 0.500000 0.000000 
0.100000 1.000000 0.000000 
0.050000 1.000000 0.000000 
0.000000 1.000000 0.000000 
0.000000 0.500000 0.000000 
0.100000 0.000000 0.000000 
0.150000 0.000000 0.000000 
0.200000 0.000000 0.000000 
0.200000 0.500000 0.000000 
0.200000 1.000000 0.000000 
0.150000 1.000000 0.000000 
0.100000 1.000000 0.000000 
0.100000 0.500000 0.000000 
0.200000 0.000000 0.000000 
0.250000 0.000000 0.000000 
0.300000 0.000000 0.000000 
0.300000 0.500000 0.000000 
0.300000 1.000000 0.000000 
0.250000 1.000000 0.000000 
0.200000 1.000000 0.000000 
0.200000 0.500000 0.000000 
0.300000 0.000000 0.000000 
0.350000 0.000000 0.000000 
0.400000 0.000000 0.000000 
0.400000 0.500000 0.000000 
0.400000 1.000000 0.000000 
0.350000 1.000000 0.000000 
0.300000 1.000000 0.000000 
0.300000 0.500000 0.000000 
0.400000 0.000000 0.000000 
0.450000 0.000000 0.000000 
0.500000 0.000000 0.000000 
0.500000 0.500000 0.000000 
0.500000 1.000000 0.000000 
0.450000 1.000000 0.000000 
0.400000 1.000000 0.000000 
0.400000 0.500000 0.000000 
0.500000 0.000000 0.000000 
0.550000 0.000000 0.000000 
0.600000 0.000000 0.000000 
0.600000 0.500000 0.000000 
0.600000 1.000000 0.000000 
0.550000 1.000000 0.000000 
0.500000 1.000000 0.000000 
0.500000 0.500000 0.000000 
0.600000 0.000000 0.000000 
0.650000 0.000000 0.000000 
0.700000 0.000000 0.000000 
0.700000 0.500000 0.000000 
0.700000 1.000000 0.000000 
0.650000 1.000000 0.000000 
0.600000 1.000000 0.000000 
0.600000 0.500000 0.000000 
0.700000 0.000000 0.000000 
0.750000 0.000000 0.000000 
0.800000 0.000000 0.000000 
0.800000 0.500000 0.000000 
0.800000 1.000000 0.000000 
0.750000 1.000000 0.000000 
0.700000 1.000000 0.000000 
0.700000 0.500000 0.000000 
0.800000 0.000000 0.000000 
0.850000 0.000000 0.000000 
0.900000 0.000000 0.000000 
0.900000 0.500000 0.000000 
0.900000 1.000000 0.000000 
0.850000 1.000000 0.000000 
0.800000 1.000000 0.000000 
0.800000 0.500000 0.000000 
0.900000 0.000000 0.000000 
0.950000 0.000000 0.000000 
1.000000 0.000000 0.000000 
1.000000 0.500000 0.000000 
1.000000 1.000000 0.000000 
0.950000 1.000000 0.000000 
0.900000 1.000000 0.000000 
0.900000 0.500000 0.000000 
CELLS 10 90 
 8 0 1 2 3 4 5 6 7  
 8 8 9 10 11 12 13 14 15  
 8 16 17 18 19 20 21 22 23  
 8 24 25 26 27 28 29 30 31  
 8 32 33 34 35 36 37 38 39  
 8 40 41 42 43 44 45 46 47  
 8 48 49 50 51 52 53 54 55  
 8 56 57 58 59 60 61 62 63  
 8 64 65 66 67 68 69 70 71  
 8 72 73 74 75 76 77 78 79  
 
CELL_TYPES 10
7
7
7
7
7
7
7
7
7
7
CELL_DATA 10
FIELD FieldData 1
material 1 10 int
1
1
1
1
1
1
1
1
1
1
POINT_DATA 80 SCALARS flux_g1 double 
LOOKUP_TABLE   default 
1.99187128e-01
1.00218175e-02
2.62819442e-02
2.08844782e-02
2.62819442e-02
1.00218175e-02
1.99187128e-01
2.03543948e-01
2.24526849e-02
1.09025853e-02
1.10358269e-02
1.09919251e-02
1.10358269e-02
1.09025853e-02
2.24526849e-02
2.28328461e-02
1.08713560e-02
9.51115972e-03
8.99814419e-03
8.99888865e-03
8.99814419e-03
9.51115972e-03
1.08713560e-02
1.10005825e-02
8.97846719e-03
8.36648999e-03
7.90256842e-03
7.91462423e-03
7.90256842e-03
8.36648999e-03
8.97846719e-03
9.01568313e-03
7.90044949e-03
7.42871125e-03
7.01943936e-03
7.02601356e-03
7.01943936e-03
7.42871125e-03
7.90044949e-03
7.91486767e-03
7.01866045e-03
6.60839438e-03
6.23146966e-03
6.23463448e-03
6.23146966e-03
6.60839438e-03
7.01866045e-03
7.02585296e-03
6.23097087e-03
5.85368205e-03
5.49302829e-03
5.49456841e-03
5.49302829e-03
5.85368205e-03
6.23097087e-03
6.23453388e-03
5.49259055e-03
5.13186075e-03
4.77432705e-03
4.77492052e-03
4.77432705e-03
5.13186075e-03
5.49259055e-03
5.49451408e-03
4.77372760e-03
4.41682155e-03
4.04264696e-03
4.04274429e-03
4.04264696e-03
4.41682155e-03
4.77372760e-03
4.77487302e-03
4.03989424e-03
3.67911899e-03
3.18274087e-03
3.18007235e-03
3.18274087e-03
3.67911899e-03
4.03989424e-03
4.04369328e-03
 
