# vtk DataFile Version 3.0 
Date: 5/30/2016   Time: 6:28
ASCII 
DATASET UNSTRUCTURED_GRID 
 
POINTS 160 float 
0.000000 0.000000 0.000000 
0.025000 0.000000 0.000000 
0.050000 0.000000 0.000000 
0.050000 0.500000 0.000000 
0.050000 1.000000 0.000000 
0.025000 1.000000 0.000000 
0.000000 1.000000 0.000000 
0.000000 0.500000 0.000000 
0.050000 0.000000 0.000000 
0.075000 0.000000 0.000000 
0.100000 0.000000 0.000000 
0.100000 0.500000 0.000000 
0.100000 1.000000 0.000000 
0.075000 1.000000 0.000000 
0.050000 1.000000 0.000000 
0.050000 0.500000 0.000000 
0.100000 0.000000 0.000000 
0.125000 0.000000 0.000000 
0.150000 0.000000 0.000000 
0.150000 0.500000 0.000000 
0.150000 1.000000 0.000000 
0.125000 1.000000 0.000000 
0.100000 1.000000 0.000000 
0.100000 0.500000 0.000000 
0.150000 0.000000 0.000000 
0.175000 0.000000 0.000000 
0.200000 0.000000 0.000000 
0.200000 0.500000 0.000000 
0.200000 1.000000 0.000000 
0.175000 1.000000 0.000000 
0.150000 1.000000 0.000000 
0.150000 0.500000 0.000000 
0.200000 0.000000 0.000000 
0.225000 0.000000 0.000000 
0.250000 0.000000 0.000000 
0.250000 0.500000 0.000000 
0.250000 1.000000 0.000000 
0.225000 1.000000 0.000000 
0.200000 1.000000 0.000000 
0.200000 0.500000 0.000000 
0.250000 0.000000 0.000000 
0.275000 0.000000 0.000000 
0.300000 0.000000 0.000000 
0.300000 0.500000 0.000000 
0.300000 1.000000 0.000000 
0.275000 1.000000 0.000000 
0.250000 1.000000 0.000000 
0.250000 0.500000 0.000000 
0.300000 0.000000 0.000000 
0.325000 0.000000 0.000000 
0.350000 0.000000 0.000000 
0.350000 0.500000 0.000000 
0.350000 1.000000 0.000000 
0.325000 1.000000 0.000000 
0.300000 1.000000 0.000000 
0.300000 0.500000 0.000000 
0.350000 0.000000 0.000000 
0.375000 0.000000 0.000000 
0.400000 0.000000 0.000000 
0.400000 0.500000 0.000000 
0.400000 1.000000 0.000000 
0.375000 1.000000 0.000000 
0.350000 1.000000 0.000000 
0.350000 0.500000 0.000000 
0.400000 0.000000 0.000000 
0.425000 0.000000 0.000000 
0.450000 0.000000 0.000000 
0.450000 0.500000 0.000000 
0.450000 1.000000 0.000000 
0.425000 1.000000 0.000000 
0.400000 1.000000 0.000000 
0.400000 0.500000 0.000000 
0.450000 0.000000 0.000000 
0.475000 0.000000 0.000000 
0.500000 0.000000 0.000000 
0.500000 0.500000 0.000000 
0.500000 1.000000 0.000000 
0.475000 1.000000 0.000000 
0.450000 1.000000 0.000000 
0.450000 0.500000 0.000000 
0.500000 0.000000 0.000000 
0.525000 0.000000 0.000000 
0.550000 0.000000 0.000000 
0.550000 0.500000 0.000000 
0.550000 1.000000 0.000000 
0.525000 1.000000 0.000000 
0.500000 1.000000 0.000000 
0.500000 0.500000 0.000000 
0.550000 0.000000 0.000000 
0.575000 0.000000 0.000000 
0.600000 0.000000 0.000000 
0.600000 0.500000 0.000000 
0.600000 1.000000 0.000000 
0.575000 1.000000 0.000000 
0.550000 1.000000 0.000000 
0.550000 0.500000 0.000000 
0.600000 0.000000 0.000000 
0.625000 0.000000 0.000000 
0.650000 0.000000 0.000000 
0.650000 0.500000 0.000000 
0.650000 1.000000 0.000000 
0.625000 1.000000 0.000000 
0.600000 1.000000 0.000000 
0.600000 0.500000 0.000000 
0.650000 0.000000 0.000000 
0.675000 0.000000 0.000000 
0.700000 0.000000 0.000000 
0.700000 0.500000 0.000000 
0.700000 1.000000 0.000000 
0.675000 1.000000 0.000000 
0.650000 1.000000 0.000000 
0.650000 0.500000 0.000000 
0.700000 0.000000 0.000000 
0.725000 0.000000 0.000000 
0.750000 0.000000 0.000000 
0.750000 0.500000 0.000000 
0.750000 1.000000 0.000000 
0.725000 1.000000 0.000000 
0.700000 1.000000 0.000000 
0.700000 0.500000 0.000000 
0.750000 0.000000 0.000000 
0.775000 0.000000 0.000000 
0.800000 0.000000 0.000000 
0.800000 0.500000 0.000000 
0.800000 1.000000 0.000000 
0.775000 1.000000 0.000000 
0.750000 1.000000 0.000000 
0.750000 0.500000 0.000000 
0.800000 0.000000 0.000000 
0.825000 0.000000 0.000000 
0.850000 0.000000 0.000000 
0.850000 0.500000 0.000000 
0.850000 1.000000 0.000000 
0.825000 1.000000 0.000000 
0.800000 1.000000 0.000000 
0.800000 0.500000 0.000000 
0.850000 0.000000 0.000000 
0.875000 0.000000 0.000000 
0.900000 0.000000 0.000000 
0.900000 0.500000 0.000000 
0.900000 1.000000 0.000000 
0.875000 1.000000 0.000000 
0.850000 1.000000 0.000000 
0.850000 0.500000 0.000000 
0.900000 0.000000 0.000000 
0.925000 0.000000 0.000000 
0.950000 0.000000 0.000000 
0.950000 0.500000 0.000000 
0.950000 1.000000 0.000000 
0.925000 1.000000 0.000000 
0.900000 1.000000 0.000000 
0.900000 0.500000 0.000000 
0.950000 0.000000 0.000000 
0.975000 0.000000 0.000000 
1.000000 0.000000 0.000000 
1.000000 0.500000 0.000000 
1.000000 1.000000 0.000000 
0.975000 1.000000 0.000000 
0.950000 1.000000 0.000000 
0.950000 0.500000 0.000000 
CELLS 20 180 
 8 0 1 2 3 4 5 6 7  
 8 8 9 10 11 12 13 14 15  
 8 16 17 18 19 20 21 22 23  
 8 24 25 26 27 28 29 30 31  
 8 32 33 34 35 36 37 38 39  
 8 40 41 42 43 44 45 46 47  
 8 48 49 50 51 52 53 54 55  
 8 56 57 58 59 60 61 62 63  
 8 64 65 66 67 68 69 70 71  
 8 72 73 74 75 76 77 78 79  
 8 80 81 82 83 84 85 86 87  
 8 88 89 90 91 92 93 94 95  
 8 96 97 98 99 100 101 102 103  
 8 104 105 106 107 108 109 110 111  
 8 112 113 114 115 116 117 118 119  
 8 120 121 122 123 124 125 126 127  
 8 128 129 130 131 132 133 134 135  
 8 136 137 138 139 140 141 142 143  
 8 144 145 146 147 148 149 150 151  
 8 152 153 154 155 156 157 158 159  
 
CELL_TYPES 20
7
7
7
7
7
7
7
7
7
7
7
7
7
7
7
7
7
7
7
7
CELL_DATA 20
FIELD FieldData 1
material 1 20 int
1
1
1
1
1
1
1
1
1
1
1
1
1
1
1
1
1
1
1
1
POINT_DATA 160 SCALARS flux_g1 double 
LOOKUP_TABLE   default 
1.30213225e-01
-6.32017070e-02
7.12926446e-03
6.15438855e-02
7.12926446e-03
-6.32017070e-02
1.30213225e-01
8.94992245e-02
1.54009290e-02
5.85249203e-03
1.03792020e-02
1.47751594e-02
1.03792020e-02
5.85249203e-03
1.54009290e-02
2.06181149e-02
1.05577130e-02
9.68018469e-03
9.71789493e-03
1.14090150e-02
9.71789493e-03
9.68018469e-03
1.05577130e-02
1.26075561e-02
9.75230600e-03
9.47760198e-03
9.25543344e-03
1.03376973e-02
9.25543344e-03
9.47760198e-03
9.75230600e-03
1.11557818e-02
9.26568936e-03
9.02504790e-03
8.78048440e-03
9.54282909e-03
8.78048440e-03
9.02504790e-03
9.26568936e-03
1.02517709e-02
8.78676563e-03
8.54213811e-03
8.29000478e-03
8.83472100e-03
8.29000478e-03
8.54213811e-03
8.78676563e-03
9.48867741e-03
8.29435196e-03
8.04320443e-03
7.78551387e-03
8.17648138e-03
7.78551387e-03
8.04320443e-03
8.29435196e-03
8.79693843e-03
7.78859378e-03
7.53176611e-03
7.26978989e-03
7.55104988e-03
7.26978989e-03
7.53176611e-03
7.78859378e-03
8.14963017e-03
7.27198943e-03
7.01068063e-03
6.74546784e-03
6.94807763e-03
6.74546784e-03
7.01068063e-03
7.27198943e-03
7.53184089e-03
6.74704538e-03
6.48233215e-03
6.21471051e-03
6.36077500e-03
6.21471051e-03
6.48233215e-03
6.74704538e-03
6.93428566e-03
6.21584506e-03
5.94859191e-03
5.67918947e-03
5.78452078e-03
5.67918947e-03
5.94859191e-03
6.21584506e-03
6.35084875e-03
5.68000713e-03
5.41087441e-03
5.14015327e-03
5.21609408e-03
5.14015327e-03
5.41087441e-03
5.68000713e-03
5.77736351e-03
5.14074374e-03
4.87021921e-03
4.59850476e-03
4.65320217e-03
4.59850476e-03
4.87021921e-03
5.14074374e-03
5.21092373e-03
4.59893232e-03
4.32736111e-03
4.05485755e-03
4.09416214e-03
4.05485755e-03
4.32736111e-03
4.59893232e-03
4.64945728e-03
4.05516870e-03
3.78277032e-03
3.50955004e-03
3.53765271e-03
3.50955004e-03
3.78277032e-03
4.05516870e-03
4.09143618e-03
3.50977908e-03
3.23663941e-03
2.96257468e-03
2.98245483e-03
2.96257468e-03
3.23663941e-03
3.50977908e-03
3.53564561e-03
2.96274863e-03
2.68875982e-03
2.41329220e-03
2.42701913e-03
2.41329220e-03
2.68875982e-03
2.96274863e-03
2.98093049e-03
2.41343966e-03
2.13813085e-03
1.85941768e-03
1.86828572e-03
1.85941768e-03
2.13813085e-03
2.41343966e-03
2.42573320e-03
1.85959735e-03
1.58212648e-03
1.29252702e-03
1.29609208e-03
1.29252702e-03
1.58212648e-03
1.85959735e-03
1.86659883e-03
1.29459744e-03
1.01951186e-03
6.43101335e-04
6.57600492e-04
6.43101335e-04
1.01951186e-03
1.29459744e-03
1.28642703e-03
 
