# vtk DataFile Version 3.0 
Date: 5/29/2016   Time: 16:30
ASCII 
DATASET UNSTRUCTURED_GRID 
 
POINTS 80 float 
0.000000 0.000000 0.000000 
0.050000 0.000000 0.000000 
0.100000 0.000000 0.000000 
0.100000 0.500000 0.000000 
0.100000 1.000000 0.000000 
0.050000 1.000000 0.000000 
0.000000 1.000000 0.000000 
0.000000 0.500000 0.000000 
0.100000 0.000000 0.000000 
0.150000 0.000000 0.000000 
0.200000 0.000000 0.000000 
0.200000 0.500000 0.000000 
0.200000 1.000000 0.000000 
0.150000 1.000000 0.000000 
0.100000 1.000000 0.000000 
0.100000 0.500000 0.000000 
0.200000 0.000000 0.000000 
0.250000 0.000000 0.000000 
0.300000 0.000000 0.000000 
0.300000 0.500000 0.000000 
0.300000 1.000000 0.000000 
0.250000 1.000000 0.000000 
0.200000 1.000000 0.000000 
0.200000 0.500000 0.000000 
0.300000 0.000000 0.000000 
0.350000 0.000000 0.000000 
0.400000 0.000000 0.000000 
0.400000 0.500000 0.000000 
0.400000 1.000000 0.000000 
0.350000 1.000000 0.000000 
0.300000 1.000000 0.000000 
0.300000 0.500000 0.000000 
0.400000 0.000000 0.000000 
0.450000 0.000000 0.000000 
0.500000 0.000000 0.000000 
0.500000 0.500000 0.000000 
0.500000 1.000000 0.000000 
0.450000 1.000000 0.000000 
0.400000 1.000000 0.000000 
0.400000 0.500000 0.000000 
0.500000 0.000000 0.000000 
0.550000 0.000000 0.000000 
0.600000 0.000000 0.000000 
0.600000 0.500000 0.000000 
0.600000 1.000000 0.000000 
0.550000 1.000000 0.000000 
0.500000 1.000000 0.000000 
0.500000 0.500000 0.000000 
0.600000 0.000000 0.000000 
0.650000 0.000000 0.000000 
0.700000 0.000000 0.000000 
0.700000 0.500000 0.000000 
0.700000 1.000000 0.000000 
0.650000 1.000000 0.000000 
0.600000 1.000000 0.000000 
0.600000 0.500000 0.000000 
0.700000 0.000000 0.000000 
0.750000 0.000000 0.000000 
0.800000 0.000000 0.000000 
0.800000 0.500000 0.000000 
0.800000 1.000000 0.000000 
0.750000 1.000000 0.000000 
0.700000 1.000000 0.000000 
0.700000 0.500000 0.000000 
0.800000 0.000000 0.000000 
0.850000 0.000000 0.000000 
0.900000 0.000000 0.000000 
0.900000 0.500000 0.000000 
0.900000 1.000000 0.000000 
0.850000 1.000000 0.000000 
0.800000 1.000000 0.000000 
0.800000 0.500000 0.000000 
0.900000 0.000000 0.000000 
0.950000 0.000000 0.000000 
1.000000 0.000000 0.000000 
1.000000 0.500000 0.000000 
1.000000 1.000000 0.000000 
0.950000 1.000000 0.000000 
0.900000 1.000000 0.000000 
0.900000 0.500000 0.000000 
CELLS 10 90 
 8 0 1 2 3 4 5 6 7  
 8 8 9 10 11 12 13 14 15  
 8 16 17 18 19 20 21 22 23  
 8 24 25 26 27 28 29 30 31  
 8 32 33 34 35 36 37 38 39  
 8 40 41 42 43 44 45 46 47  
 8 48 49 50 51 52 53 54 55  
 8 56 57 58 59 60 61 62 63  
 8 64 65 66 67 68 69 70 71  
 8 72 73 74 75 76 77 78 79  
 
CELL_TYPES 10
7
7
7
7
7
7
7
7
7
7
CELL_DATA 10
FIELD FieldData 1
material 1 10 int
1
1
1
1
1
1
1
1
1
1
POINT_DATA 80 SCALARS flux_g1 double 
LOOKUP_TABLE   default 
3.55750990e-02
-1.32031845e-02
-1.68884415e-03
4.90174969e-02
-1.68884415e-03
-1.32031845e-02
3.55750990e-02
2.48875316e-02
1.93870545e-04
1.41285833e-03
3.54097530e-03
2.58095499e-02
3.54097530e-03
1.41285833e-03
1.93870545e-04
3.58885260e-02
3.65077203e-03
4.41356299e-03
5.22211731e-03
1.79584595e-02
5.22211731e-03
4.41356299e-03
3.65077203e-03
2.43876631e-02
5.29011073e-03
5.46385930e-03
5.64465892e-03
1.29479637e-02
5.64465892e-03
5.46385930e-03
5.29011073e-03
1.72073410e-02
5.68338546e-03
5.50447663e-03
5.32867499e-03
9.51127983e-03
5.32867499e-03
5.50447663e-03
5.68338546e-03
1.25189691e-02
5.35095466e-03
4.96945116e-03
4.58966766e-03
6.97373881e-03
4.58966766e-03
4.96945116e-03
5.35095466e-03
9.26452204e-03
4.60255197e-03
4.10559223e-03
3.60959973e-03
4.94870478e-03
3.60959973e-03
4.10559223e-03
4.60255197e-03
6.83103852e-03
3.61716301e-03
3.05547273e-03
2.49424883e-03
3.21169431e-03
2.49424883e-03
3.05547273e-03
3.61716301e-03
4.86493933e-03
2.49888135e-03
1.90297453e-03
1.30624875e-03
1.62924690e-03
1.30624875e-03
1.90297453e-03
2.49888135e-03
3.16028409e-03
1.31001816e-03
7.02201179e-04
7.21858530e-05
1.24215644e-04
7.21858530e-05
7.02201179e-04
1.31001816e-03
1.59129997e-03
 
