# vtk DataFile Version 3.0 
Date: 5/29/2016   Time: 9:25
ASCII 
DATASET UNSTRUCTURED_GRID 
 
POINTS 80 float 
0.000000 0.000000 0.000000 
0.050000 0.000000 0.000000 
0.100000 0.000000 0.000000 
0.100000 0.500000 0.000000 
0.100000 1.000000 0.000000 
0.050000 1.000000 0.000000 
0.000000 1.000000 0.000000 
0.000000 0.500000 0.000000 
0.100000 0.000000 0.000000 
0.150000 0.000000 0.000000 
0.200000 0.000000 0.000000 
0.200000 0.500000 0.000000 
0.200000 1.000000 0.000000 
0.150000 1.000000 0.000000 
0.100000 1.000000 0.000000 
0.100000 0.500000 0.000000 
0.200000 0.000000 0.000000 
0.250000 0.000000 0.000000 
0.300000 0.000000 0.000000 
0.300000 0.500000 0.000000 
0.300000 1.000000 0.000000 
0.250000 1.000000 0.000000 
0.200000 1.000000 0.000000 
0.200000 0.500000 0.000000 
0.300000 0.000000 0.000000 
0.350000 0.000000 0.000000 
0.400000 0.000000 0.000000 
0.400000 0.500000 0.000000 
0.400000 1.000000 0.000000 
0.350000 1.000000 0.000000 
0.300000 1.000000 0.000000 
0.300000 0.500000 0.000000 
0.400000 0.000000 0.000000 
0.450000 0.000000 0.000000 
0.500000 0.000000 0.000000 
0.500000 0.500000 0.000000 
0.500000 1.000000 0.000000 
0.450000 1.000000 0.000000 
0.400000 1.000000 0.000000 
0.400000 0.500000 0.000000 
0.500000 0.000000 0.000000 
0.550000 0.000000 0.000000 
0.600000 0.000000 0.000000 
0.600000 0.500000 0.000000 
0.600000 1.000000 0.000000 
0.550000 1.000000 0.000000 
0.500000 1.000000 0.000000 
0.500000 0.500000 0.000000 
0.600000 0.000000 0.000000 
0.650000 0.000000 0.000000 
0.700000 0.000000 0.000000 
0.700000 0.500000 0.000000 
0.700000 1.000000 0.000000 
0.650000 1.000000 0.000000 
0.600000 1.000000 0.000000 
0.600000 0.500000 0.000000 
0.700000 0.000000 0.000000 
0.750000 0.000000 0.000000 
0.800000 0.000000 0.000000 
0.800000 0.500000 0.000000 
0.800000 1.000000 0.000000 
0.750000 1.000000 0.000000 
0.700000 1.000000 0.000000 
0.700000 0.500000 0.000000 
0.800000 0.000000 0.000000 
0.850000 0.000000 0.000000 
0.900000 0.000000 0.000000 
0.900000 0.500000 0.000000 
0.900000 1.000000 0.000000 
0.850000 1.000000 0.000000 
0.800000 1.000000 0.000000 
0.800000 0.500000 0.000000 
0.900000 0.000000 0.000000 
0.950000 0.000000 0.000000 
1.000000 0.000000 0.000000 
1.000000 0.500000 0.000000 
1.000000 1.000000 0.000000 
0.950000 1.000000 0.000000 
0.900000 1.000000 0.000000 
0.900000 0.500000 0.000000 
CELLS 10 90 
 8 0 1 2 3 4 5 6 7  
 8 8 9 10 11 12 13 14 15  
 8 16 17 18 19 20 21 22 23  
 8 24 25 26 27 28 29 30 31  
 8 32 33 34 35 36 37 38 39  
 8 40 41 42 43 44 45 46 47  
 8 48 49 50 51 52 53 54 55  
 8 56 57 58 59 60 61 62 63  
 8 64 65 66 67 68 69 70 71  
 8 72 73 74 75 76 77 78 79  
 
CELL_TYPES 10
7
7
7
7
7
7
7
7
7
7
CELL_DATA 10
FIELD FieldData 1
material 1 10 int
1
1
1
1
1
1
1
1
1
1
POINT_DATA 80 SCALARS flux_g1 double 
LOOKUP_TABLE   default 
2.03177563e-01
9.18011989e-03
2.13645983e-02
3.00131276e-02
2.13645983e-02
9.18011989e-03
2.03177563e-01
1.97184483e-01
2.30715290e-02
1.09300972e-02
1.07178808e-02
1.15704332e-02
1.07178808e-02
1.09300972e-02
2.30715290e-02
2.18395341e-02
1.10136413e-02
9.54994596e-03
8.97604181e-03
9.03261646e-03
8.97604181e-03
9.54994596e-03
1.10136413e-02
1.07556177e-02
9.01755879e-03
8.38434968e-03
7.90884527e-03
7.89546676e-03
7.90884527e-03
8.38434968e-03
9.01755879e-03
8.94212602e-03
7.91402480e-03
7.43631376e-03
7.02379471e-03
7.01173980e-03
7.02379471e-03
7.43631376e-03
7.91402480e-03
7.88492135e-03
7.02426826e-03
6.61151048e-03
6.23313539e-03
6.22641117e-03
6.23313539e-03
6.61151048e-03
7.02426826e-03
7.01052533e-03
6.23311524e-03
5.85461948e-03
5.49323709e-03
5.48982742e-03
5.49323709e-03
5.85461948e-03
6.23311524e-03
6.22608144e-03
5.49323249e-03
5.13179200e-03
4.77374389e-03
4.77227388e-03
4.77374389e-03
5.13179200e-03
5.49323249e-03
5.48934286e-03
4.77391272e-03
4.41638682e-03
4.04151630e-03
4.04158088e-03
4.04151630e-03
4.41638682e-03
4.77391272e-03
4.77105562e-03
4.04248206e-03
3.67902804e-03
3.17943411e-03
3.18304681e-03
3.17943411e-03
3.67902804e-03
4.04248206e-03
4.03590717e-03
 
