# vtk DataFile Version 3.0 
Date: 5/29/2016   Time: 9:17
ASCII 
DATASET UNSTRUCTURED_GRID 
 
POINTS 80 float 
0.000000 0.000000 0.000000 
0.050000 0.000000 0.000000 
0.100000 0.000000 0.000000 
0.100000 0.500000 0.000000 
0.100000 1.000000 0.000000 
0.050000 1.000000 0.000000 
0.000000 1.000000 0.000000 
0.000000 0.500000 0.000000 
0.100000 0.000000 0.000000 
0.150000 0.000000 0.000000 
0.200000 0.000000 0.000000 
0.200000 0.500000 0.000000 
0.200000 1.000000 0.000000 
0.150000 1.000000 0.000000 
0.100000 1.000000 0.000000 
0.100000 0.500000 0.000000 
0.200000 0.000000 0.000000 
0.250000 0.000000 0.000000 
0.300000 0.000000 0.000000 
0.300000 0.500000 0.000000 
0.300000 1.000000 0.000000 
0.250000 1.000000 0.000000 
0.200000 1.000000 0.000000 
0.200000 0.500000 0.000000 
0.300000 0.000000 0.000000 
0.350000 0.000000 0.000000 
0.400000 0.000000 0.000000 
0.400000 0.500000 0.000000 
0.400000 1.000000 0.000000 
0.350000 1.000000 0.000000 
0.300000 1.000000 0.000000 
0.300000 0.500000 0.000000 
0.400000 0.000000 0.000000 
0.450000 0.000000 0.000000 
0.500000 0.000000 0.000000 
0.500000 0.500000 0.000000 
0.500000 1.000000 0.000000 
0.450000 1.000000 0.000000 
0.400000 1.000000 0.000000 
0.400000 0.500000 0.000000 
0.500000 0.000000 0.000000 
0.550000 0.000000 0.000000 
0.600000 0.000000 0.000000 
0.600000 0.500000 0.000000 
0.600000 1.000000 0.000000 
0.550000 1.000000 0.000000 
0.500000 1.000000 0.000000 
0.500000 0.500000 0.000000 
0.600000 0.000000 0.000000 
0.650000 0.000000 0.000000 
0.700000 0.000000 0.000000 
0.700000 0.500000 0.000000 
0.700000 1.000000 0.000000 
0.650000 1.000000 0.000000 
0.600000 1.000000 0.000000 
0.600000 0.500000 0.000000 
0.700000 0.000000 0.000000 
0.750000 0.000000 0.000000 
0.800000 0.000000 0.000000 
0.800000 0.500000 0.000000 
0.800000 1.000000 0.000000 
0.750000 1.000000 0.000000 
0.700000 1.000000 0.000000 
0.700000 0.500000 0.000000 
0.800000 0.000000 0.000000 
0.850000 0.000000 0.000000 
0.900000 0.000000 0.000000 
0.900000 0.500000 0.000000 
0.900000 1.000000 0.000000 
0.850000 1.000000 0.000000 
0.800000 1.000000 0.000000 
0.800000 0.500000 0.000000 
0.900000 0.000000 0.000000 
0.950000 0.000000 0.000000 
1.000000 0.000000 0.000000 
1.000000 0.500000 0.000000 
1.000000 1.000000 0.000000 
0.950000 1.000000 0.000000 
0.900000 1.000000 0.000000 
0.900000 0.500000 0.000000 
CELLS 10 90 
 8 0 1 2 3 4 5 6 7  
 8 8 9 10 11 12 13 14 15  
 8 16 17 18 19 20 21 22 23  
 8 24 25 26 27 28 29 30 31  
 8 32 33 34 35 36 37 38 39  
 8 40 41 42 43 44 45 46 47  
 8 48 49 50 51 52 53 54 55  
 8 56 57 58 59 60 61 62 63  
 8 64 65 66 67 68 69 70 71  
 8 72 73 74 75 76 77 78 79  
 
CELL_TYPES 10
7
7
7
7
7
7
7
7
7
7
CELL_DATA 10
FIELD FieldData 1
material 1 10 int
1
1
1
1
1
1
1
1
1
1
POINT_DATA 80 SCALARS flux_g1 double 
LOOKUP_TABLE   default 
2.00431384e-01
9.97845669e-03
2.45455109e-02
2.45455110e-02
2.45455109e-02
9.97845669e-03
2.00431384e-01
2.00431384e-01
2.25838716e-02
1.09648641e-02
1.10251431e-02
1.10251432e-02
1.10251431e-02
1.09648641e-02
2.25838716e-02
2.25838716e-02
1.09121330e-02
9.53549780e-03
8.99893743e-03
8.99893754e-03
8.99893743e-03
9.53549780e-03
1.09121330e-02
1.09121331e-02
8.99034993e-03
8.37536812e-03
7.90667991e-03
7.90668003e-03
7.90667991e-03
8.37536812e-03
8.99034993e-03
8.99035004e-03
7.90505324e-03
7.43242578e-03
7.02166772e-03
7.02166784e-03
7.02166772e-03
7.43242578e-03
7.90505324e-03
7.90505336e-03
7.02095340e-03
6.61023521e-03
6.23254809e-03
6.23254820e-03
6.23254809e-03
6.61023521e-03
7.02095340e-03
7.02095352e-03
6.23211194e-03
5.85458936e-03
5.49355959e-03
5.49355970e-03
5.49355959e-03
5.85458936e-03
6.23211194e-03
6.23211205e-03
5.49320887e-03
5.13230898e-03
4.77454314e-03
4.77454324e-03
4.77454314e-03
5.13230898e-03
5.49320887e-03
5.49320898e-03
4.77409620e-03
4.41704358e-03
4.04269177e-03
4.04269186e-03
4.04269177e-03
4.41704358e-03
4.77409620e-03
4.77409629e-03
4.04112127e-03
3.67922733e-03
3.18199598e-03
3.18199603e-03
3.18199598e-03
3.67922733e-03
4.04112127e-03
4.04112136e-03
 
