# vtk DataFile Version 3.0 
Date: 5/29/2016   Time: 9:21
ASCII 
DATASET UNSTRUCTURED_GRID 
 
POINTS 80 float 
0.000000 0.000000 0.000000 
0.050000 0.000000 0.000000 
0.100000 0.000000 0.000000 
0.100000 0.500000 0.000000 
0.100000 1.000000 0.000000 
0.050000 1.000000 0.000000 
0.000000 1.000000 0.000000 
0.000000 0.500000 0.000000 
0.100000 0.000000 0.000000 
0.150000 0.000000 0.000000 
0.200000 0.000000 0.000000 
0.200000 0.500000 0.000000 
0.200000 1.000000 0.000000 
0.150000 1.000000 0.000000 
0.100000 1.000000 0.000000 
0.100000 0.500000 0.000000 
0.200000 0.000000 0.000000 
0.250000 0.000000 0.000000 
0.300000 0.000000 0.000000 
0.300000 0.500000 0.000000 
0.300000 1.000000 0.000000 
0.250000 1.000000 0.000000 
0.200000 1.000000 0.000000 
0.200000 0.500000 0.000000 
0.300000 0.000000 0.000000 
0.350000 0.000000 0.000000 
0.400000 0.000000 0.000000 
0.400000 0.500000 0.000000 
0.400000 1.000000 0.000000 
0.350000 1.000000 0.000000 
0.300000 1.000000 0.000000 
0.300000 0.500000 0.000000 
0.400000 0.000000 0.000000 
0.450000 0.000000 0.000000 
0.500000 0.000000 0.000000 
0.500000 0.500000 0.000000 
0.500000 1.000000 0.000000 
0.450000 1.000000 0.000000 
0.400000 1.000000 0.000000 
0.400000 0.500000 0.000000 
0.500000 0.000000 0.000000 
0.550000 0.000000 0.000000 
0.600000 0.000000 0.000000 
0.600000 0.500000 0.000000 
0.600000 1.000000 0.000000 
0.550000 1.000000 0.000000 
0.500000 1.000000 0.000000 
0.500000 0.500000 0.000000 
0.600000 0.000000 0.000000 
0.650000 0.000000 0.000000 
0.700000 0.000000 0.000000 
0.700000 0.500000 0.000000 
0.700000 1.000000 0.000000 
0.650000 1.000000 0.000000 
0.600000 1.000000 0.000000 
0.600000 0.500000 0.000000 
0.700000 0.000000 0.000000 
0.750000 0.000000 0.000000 
0.800000 0.000000 0.000000 
0.800000 0.500000 0.000000 
0.800000 1.000000 0.000000 
0.750000 1.000000 0.000000 
0.700000 1.000000 0.000000 
0.700000 0.500000 0.000000 
0.800000 0.000000 0.000000 
0.850000 0.000000 0.000000 
0.900000 0.000000 0.000000 
0.900000 0.500000 0.000000 
0.900000 1.000000 0.000000 
0.850000 1.000000 0.000000 
0.800000 1.000000 0.000000 
0.800000 0.500000 0.000000 
0.900000 0.000000 0.000000 
0.950000 0.000000 0.000000 
1.000000 0.000000 0.000000 
1.000000 0.500000 0.000000 
1.000000 1.000000 0.000000 
0.950000 1.000000 0.000000 
0.900000 1.000000 0.000000 
0.900000 0.500000 0.000000 
CELLS 10 90 
 8 0 1 2 3 4 5 6 7  
 8 8 9 10 11 12 13 14 15  
 8 16 17 18 19 20 21 22 23  
 8 24 25 26 27 28 29 30 31  
 8 32 33 34 35 36 37 38 39  
 8 40 41 42 43 44 45 46 47  
 8 48 49 50 51 52 53 54 55  
 8 56 57 58 59 60 61 62 63  
 8 64 65 66 67 68 69 70 71  
 8 72 73 74 75 76 77 78 79  
 
CELL_TYPES 10
7
7
7
7
7
7
7
7
7
7
CELL_DATA 10
FIELD FieldData 1
material 1 10 int
1
1
1
1
1
1
1
1
1
1
POINT_DATA 80 SCALARS flux_g1 double 
LOOKUP_TABLE   default 
7.08582842e-02
-4.40314487e-02
3.57098951e-02
8.34849693e-03
3.57098951e-02
-4.40314487e-02
7.08582842e-02
8.98856388e-02
1.55928711e-02
8.00549236e-03
1.12107445e-02
9.51744132e-03
1.12107445e-02
8.00549236e-03
1.55928711e-02
1.23105702e-02
1.02950438e-02
9.26533566e-03
8.85965703e-03
8.19610477e-03
8.85965703e-03
9.26533566e-03
1.02950438e-02
9.18943790e-03
8.78355768e-03
8.16034348e-03
7.56913970e-03
7.26657453e-03
7.56913970e-03
8.16034348e-03
8.78355768e-03
8.20170227e-03
7.55862199e-03
6.98028026e-03
6.40133403e-03
6.24813228e-03
6.40133403e-03
6.98028026e-03
7.55862199e-03
7.26555823e-03
6.39731563e-03
5.83096515e-03
5.26300987e-03
5.18509179e-03
5.26300987e-03
5.83096515e-03
6.39731563e-03
6.24804789e-03
5.26104691e-03
4.69988078e-03
4.13747920e-03
4.09806206e-03
4.13747920e-03
4.69988078e-03
5.26104691e-03
5.18503838e-03
4.13642300e-03
3.57762855e-03
3.01675788e-03
2.99737276e-03
3.01675788e-03
3.57762855e-03
4.13642300e-03
4.09805286e-03
3.01591871e-03
2.45815311e-03
1.88886699e-03
1.88340009e-03
1.88886699e-03
2.45815311e-03
3.01591871e-03
2.99711069e-03
1.88149804e-03
1.35211616e-03
6.74557694e-04
6.61526178e-04
6.74557694e-04
1.35211616e-03
1.88149804e-03
1.88605101e-03
 
