# vtk DataFile Version 3.0 
Date: 6/24/2016   Time: 20:7
ASCII 
DATASET UNSTRUCTURED_GRID 
 
POINTS 40 float 
0.000000 0.000000 0.000000 
0.100000 0.000000 0.000000 
0.100000 1.000000 0.000000 
0.000000 1.000000 0.000000 
0.100000 0.000000 0.000000 
0.200000 0.000000 0.000000 
0.200000 1.000000 0.000000 
0.100000 1.000000 0.000000 
0.200000 0.000000 0.000000 
0.300000 0.000000 0.000000 
0.300000 1.000000 0.000000 
0.200000 1.000000 0.000000 
0.300000 0.000000 0.000000 
0.400000 0.000000 0.000000 
0.400000 1.000000 0.000000 
0.300000 1.000000 0.000000 
0.400000 0.000000 0.000000 
0.500000 0.000000 0.000000 
0.500000 1.000000 0.000000 
0.400000 1.000000 0.000000 
0.500000 0.000000 0.000000 
0.600000 0.000000 0.000000 
0.600000 1.000000 0.000000 
0.500000 1.000000 0.000000 
0.600000 0.000000 0.000000 
0.700000 0.000000 0.000000 
0.700000 1.000000 0.000000 
0.600000 1.000000 0.000000 
0.700000 0.000000 0.000000 
0.800000 0.000000 0.000000 
0.800000 1.000000 0.000000 
0.700000 1.000000 0.000000 
0.800000 0.000000 0.000000 
0.900000 0.000000 0.000000 
0.900000 1.000000 0.000000 
0.800000 1.000000 0.000000 
0.900000 0.000000 0.000000 
1.000000 0.000000 0.000000 
1.000000 1.000000 0.000000 
0.900000 1.000000 0.000000 
CELLS 10 50 
 4 0 1 2 3  
 4 4 5 6 7  
 4 8 9 10 11  
 4 12 13 14 15  
 4 16 17 18 19  
 4 20 21 22 23  
 4 24 25 26 27  
 4 28 29 30 31  
 4 32 33 34 35  
 4 36 37 38 39  
 
CELL_TYPES 10
7
7
7
7
7
7
7
7
7
7
CELL_DATA 10
FIELD FieldData 1
material 1 10 int
1
1
1
1
1
1
1
1
1
1
POINT_DATA 40 SCALARS flux_g1 double 
LOOKUP_TABLE   default 
1.95104397e-01
1.89829408e-01
1.89829408e-01
1.95104397e-01
1.76527874e-01
1.24058107e-01
1.24058107e-01
1.76527874e-01
1.23508850e-01
9.24778300e-02
9.24778300e-02
1.23508850e-01
9.22433574e-02
7.18059213e-02
7.18059213e-02
9.22433574e-02
7.16919993e-02
5.64392563e-02
5.64392563e-02
7.16919993e-02
5.63835293e-02
4.36645574e-02
4.36645574e-02
5.63835293e-02
4.36372331e-02
3.21539222e-02
3.21539222e-02
4.36372331e-02
3.21404083e-02
2.12544509e-02
2.12544509e-02
3.21404083e-02
2.12475106e-02
1.06396461e-02
1.06396461e-02
2.12475106e-02
1.06345695e-02
1.41456329e-04
1.41456329e-04
1.06345695e-02
 
