# vtk DataFile Version 3.0 
Date: 5/29/2016   Time: 10:56
ASCII 
DATASET UNSTRUCTURED_GRID 
 
POINTS 80 float 
0.000000 0.000000 0.000000 
0.050000 0.000000 0.000000 
0.100000 0.000000 0.000000 
0.100000 0.500000 0.000000 
0.100000 1.000000 0.000000 
0.050000 1.000000 0.000000 
0.000000 1.000000 0.000000 
0.000000 0.500000 0.000000 
0.100000 0.000000 0.000000 
0.150000 0.000000 0.000000 
0.200000 0.000000 0.000000 
0.200000 0.500000 0.000000 
0.200000 1.000000 0.000000 
0.150000 1.000000 0.000000 
0.100000 1.000000 0.000000 
0.100000 0.500000 0.000000 
0.200000 0.000000 0.000000 
0.250000 0.000000 0.000000 
0.300000 0.000000 0.000000 
0.300000 0.500000 0.000000 
0.300000 1.000000 0.000000 
0.250000 1.000000 0.000000 
0.200000 1.000000 0.000000 
0.200000 0.500000 0.000000 
0.300000 0.000000 0.000000 
0.350000 0.000000 0.000000 
0.400000 0.000000 0.000000 
0.400000 0.500000 0.000000 
0.400000 1.000000 0.000000 
0.350000 1.000000 0.000000 
0.300000 1.000000 0.000000 
0.300000 0.500000 0.000000 
0.400000 0.000000 0.000000 
0.450000 0.000000 0.000000 
0.500000 0.000000 0.000000 
0.500000 0.500000 0.000000 
0.500000 1.000000 0.000000 
0.450000 1.000000 0.000000 
0.400000 1.000000 0.000000 
0.400000 0.500000 0.000000 
0.500000 0.000000 0.000000 
0.550000 0.000000 0.000000 
0.600000 0.000000 0.000000 
0.600000 0.500000 0.000000 
0.600000 1.000000 0.000000 
0.550000 1.000000 0.000000 
0.500000 1.000000 0.000000 
0.500000 0.500000 0.000000 
0.600000 0.000000 0.000000 
0.650000 0.000000 0.000000 
0.700000 0.000000 0.000000 
0.700000 0.500000 0.000000 
0.700000 1.000000 0.000000 
0.650000 1.000000 0.000000 
0.600000 1.000000 0.000000 
0.600000 0.500000 0.000000 
0.700000 0.000000 0.000000 
0.750000 0.000000 0.000000 
0.800000 0.000000 0.000000 
0.800000 0.500000 0.000000 
0.800000 1.000000 0.000000 
0.750000 1.000000 0.000000 
0.700000 1.000000 0.000000 
0.700000 0.500000 0.000000 
0.800000 0.000000 0.000000 
0.850000 0.000000 0.000000 
0.900000 0.000000 0.000000 
0.900000 0.500000 0.000000 
0.900000 1.000000 0.000000 
0.850000 1.000000 0.000000 
0.800000 1.000000 0.000000 
0.800000 0.500000 0.000000 
0.900000 0.000000 0.000000 
0.950000 0.000000 0.000000 
1.000000 0.000000 0.000000 
1.000000 0.500000 0.000000 
1.000000 1.000000 0.000000 
0.950000 1.000000 0.000000 
0.900000 1.000000 0.000000 
0.900000 0.500000 0.000000 
CELLS 10 90 
 8 0 1 2 3 4 5 6 7  
 8 8 9 10 11 12 13 14 15  
 8 16 17 18 19 20 21 22 23  
 8 24 25 26 27 28 29 30 31  
 8 32 33 34 35 36 37 38 39  
 8 40 41 42 43 44 45 46 47  
 8 48 49 50 51 52 53 54 55  
 8 56 57 58 59 60 61 62 63  
 8 64 65 66 67 68 69 70 71  
 8 72 73 74 75 76 77 78 79  
 
CELL_TYPES 10
7
7
7
7
7
7
7
7
7
7
CELL_DATA 10
FIELD FieldData 1
material 1 10 int
1
1
1
1
1
1
1
1
1
1
POINT_DATA 80 SCALARS flux_g1 double 
LOOKUP_TABLE   default 
3.10826759e-02
-6.89011008e-03
1.69212647e-02
1.69212665e-02
1.69212647e-02
-6.89011008e-03
3.10826759e-02
3.10826760e-02
1.25096101e-02
1.10262469e-02
1.08718033e-02
1.08718066e-02
1.08718033e-02
1.10262469e-02
1.25096101e-02
1.25096119e-02
1.07925081e-02
1.00905502e-02
9.44394182e-03
9.44394633e-03
9.44394182e-03
1.00905502e-02
1.07925081e-02
1.07925114e-02
9.44113332e-03
8.77165253e-03
8.10528407e-03
8.10528933e-03
8.10528407e-03
8.77165253e-03
9.44113332e-03
9.44113782e-03
8.10513636e-03
7.43748200e-03
6.77001788e-03
6.77002341e-03
6.77001788e-03
7.43748200e-03
8.10513636e-03
8.10514163e-03
6.77000908e-03
6.10246667e-03
5.43493597e-03
5.43494123e-03
5.43493597e-03
6.10246667e-03
6.77000908e-03
6.77001461e-03
5.43493518e-03
4.76740191e-03
4.09986398e-03
4.09986848e-03
4.09986398e-03
4.76740191e-03
5.43493518e-03
5.43494044e-03
4.09986000e-03
3.43235791e-03
2.76476821e-03
2.76477152e-03
2.76476821e-03
3.43235791e-03
4.09986000e-03
4.09986450e-03
2.76470329e-03
2.09769694e-03
1.42927222e-03
1.42927402e-03
1.42927222e-03
2.09769694e-03
2.76470329e-03
2.76470660e-03
1.42813971e-03
7.69523781e-04
8.70686988e-05
8.70688130e-05
8.70686988e-05
7.69523781e-04
1.42813971e-03
1.42814151e-03
 
