# vtk DataFile Version 3.0 
Date: 5/30/2016   Time: 6:19
ASCII 
DATASET UNSTRUCTURED_GRID 
 
POINTS 160 float 
0.000000 0.000000 0.000000 
0.025000 0.000000 0.000000 
0.050000 0.000000 0.000000 
0.050000 0.500000 0.000000 
0.050000 1.000000 0.000000 
0.025000 1.000000 0.000000 
0.000000 1.000000 0.000000 
0.000000 0.500000 0.000000 
0.050000 0.000000 0.000000 
0.075000 0.000000 0.000000 
0.100000 0.000000 0.000000 
0.100000 0.500000 0.000000 
0.100000 1.000000 0.000000 
0.075000 1.000000 0.000000 
0.050000 1.000000 0.000000 
0.050000 0.500000 0.000000 
0.100000 0.000000 0.000000 
0.125000 0.000000 0.000000 
0.150000 0.000000 0.000000 
0.150000 0.500000 0.000000 
0.150000 1.000000 0.000000 
0.125000 1.000000 0.000000 
0.100000 1.000000 0.000000 
0.100000 0.500000 0.000000 
0.150000 0.000000 0.000000 
0.175000 0.000000 0.000000 
0.200000 0.000000 0.000000 
0.200000 0.500000 0.000000 
0.200000 1.000000 0.000000 
0.175000 1.000000 0.000000 
0.150000 1.000000 0.000000 
0.150000 0.500000 0.000000 
0.200000 0.000000 0.000000 
0.225000 0.000000 0.000000 
0.250000 0.000000 0.000000 
0.250000 0.500000 0.000000 
0.250000 1.000000 0.000000 
0.225000 1.000000 0.000000 
0.200000 1.000000 0.000000 
0.200000 0.500000 0.000000 
0.250000 0.000000 0.000000 
0.275000 0.000000 0.000000 
0.300000 0.000000 0.000000 
0.300000 0.500000 0.000000 
0.300000 1.000000 0.000000 
0.275000 1.000000 0.000000 
0.250000 1.000000 0.000000 
0.250000 0.500000 0.000000 
0.300000 0.000000 0.000000 
0.325000 0.000000 0.000000 
0.350000 0.000000 0.000000 
0.350000 0.500000 0.000000 
0.350000 1.000000 0.000000 
0.325000 1.000000 0.000000 
0.300000 1.000000 0.000000 
0.300000 0.500000 0.000000 
0.350000 0.000000 0.000000 
0.375000 0.000000 0.000000 
0.400000 0.000000 0.000000 
0.400000 0.500000 0.000000 
0.400000 1.000000 0.000000 
0.375000 1.000000 0.000000 
0.350000 1.000000 0.000000 
0.350000 0.500000 0.000000 
0.400000 0.000000 0.000000 
0.425000 0.000000 0.000000 
0.450000 0.000000 0.000000 
0.450000 0.500000 0.000000 
0.450000 1.000000 0.000000 
0.425000 1.000000 0.000000 
0.400000 1.000000 0.000000 
0.400000 0.500000 0.000000 
0.450000 0.000000 0.000000 
0.475000 0.000000 0.000000 
0.500000 0.000000 0.000000 
0.500000 0.500000 0.000000 
0.500000 1.000000 0.000000 
0.475000 1.000000 0.000000 
0.450000 1.000000 0.000000 
0.450000 0.500000 0.000000 
0.500000 0.000000 0.000000 
0.525000 0.000000 0.000000 
0.550000 0.000000 0.000000 
0.550000 0.500000 0.000000 
0.550000 1.000000 0.000000 
0.525000 1.000000 0.000000 
0.500000 1.000000 0.000000 
0.500000 0.500000 0.000000 
0.550000 0.000000 0.000000 
0.575000 0.000000 0.000000 
0.600000 0.000000 0.000000 
0.600000 0.500000 0.000000 
0.600000 1.000000 0.000000 
0.575000 1.000000 0.000000 
0.550000 1.000000 0.000000 
0.550000 0.500000 0.000000 
0.600000 0.000000 0.000000 
0.625000 0.000000 0.000000 
0.650000 0.000000 0.000000 
0.650000 0.500000 0.000000 
0.650000 1.000000 0.000000 
0.625000 1.000000 0.000000 
0.600000 1.000000 0.000000 
0.600000 0.500000 0.000000 
0.650000 0.000000 0.000000 
0.675000 0.000000 0.000000 
0.700000 0.000000 0.000000 
0.700000 0.500000 0.000000 
0.700000 1.000000 0.000000 
0.675000 1.000000 0.000000 
0.650000 1.000000 0.000000 
0.650000 0.500000 0.000000 
0.700000 0.000000 0.000000 
0.725000 0.000000 0.000000 
0.750000 0.000000 0.000000 
0.750000 0.500000 0.000000 
0.750000 1.000000 0.000000 
0.725000 1.000000 0.000000 
0.700000 1.000000 0.000000 
0.700000 0.500000 0.000000 
0.750000 0.000000 0.000000 
0.775000 0.000000 0.000000 
0.800000 0.000000 0.000000 
0.800000 0.500000 0.000000 
0.800000 1.000000 0.000000 
0.775000 1.000000 0.000000 
0.750000 1.000000 0.000000 
0.750000 0.500000 0.000000 
0.800000 0.000000 0.000000 
0.825000 0.000000 0.000000 
0.850000 0.000000 0.000000 
0.850000 0.500000 0.000000 
0.850000 1.000000 0.000000 
0.825000 1.000000 0.000000 
0.800000 1.000000 0.000000 
0.800000 0.500000 0.000000 
0.850000 0.000000 0.000000 
0.875000 0.000000 0.000000 
0.900000 0.000000 0.000000 
0.900000 0.500000 0.000000 
0.900000 1.000000 0.000000 
0.875000 1.000000 0.000000 
0.850000 1.000000 0.000000 
0.850000 0.500000 0.000000 
0.900000 0.000000 0.000000 
0.925000 0.000000 0.000000 
0.950000 0.000000 0.000000 
0.950000 0.500000 0.000000 
0.950000 1.000000 0.000000 
0.925000 1.000000 0.000000 
0.900000 1.000000 0.000000 
0.900000 0.500000 0.000000 
0.950000 0.000000 0.000000 
0.975000 0.000000 0.000000 
1.000000 0.000000 0.000000 
1.000000 0.500000 0.000000 
1.000000 1.000000 0.000000 
0.975000 1.000000 0.000000 
0.950000 1.000000 0.000000 
0.950000 0.500000 0.000000 
CELLS 20 180 
 8 0 1 2 3 4 5 6 7  
 8 8 9 10 11 12 13 14 15  
 8 16 17 18 19 20 21 22 23  
 8 24 25 26 27 28 29 30 31  
 8 32 33 34 35 36 37 38 39  
 8 40 41 42 43 44 45 46 47  
 8 48 49 50 51 52 53 54 55  
 8 56 57 58 59 60 61 62 63  
 8 64 65 66 67 68 69 70 71  
 8 72 73 74 75 76 77 78 79  
 8 80 81 82 83 84 85 86 87  
 8 88 89 90 91 92 93 94 95  
 8 96 97 98 99 100 101 102 103  
 8 104 105 106 107 108 109 110 111  
 8 112 113 114 115 116 117 118 119  
 8 120 121 122 123 124 125 126 127  
 8 128 129 130 131 132 133 134 135  
 8 136 137 138 139 140 141 142 143  
 8 144 145 146 147 148 149 150 151  
 8 152 153 154 155 156 157 158 159  
 
CELL_TYPES 20
7
7
7
7
7
7
7
7
7
7
7
7
7
7
7
7
7
7
7
7
CELL_DATA 20
FIELD FieldData 1
material 1 20 int
1
1
1
1
1
1
1
1
1
1
1
1
1
1
1
1
1
1
1
1
POINT_DATA 160 SCALARS flux_g1 double 
LOOKUP_TABLE   default 
3.67561180e-02
-1.28003541e-02
2.03205941e-02
1.97256520e-02
2.03205941e-02
-1.28003541e-02
3.67561180e-02
3.68957094e-02
1.33899480e-02
1.16356668e-02
1.21866625e-02
1.19303500e-02
1.21866625e-02
1.16356668e-02
1.33899480e-02
1.30144313e-02
1.20206557e-02
1.16242756e-02
1.13160894e-02
1.11407706e-02
1.13160894e-02
1.16242756e-02
1.20206557e-02
1.17651717e-02
1.13106575e-02
1.09704772e-02
1.06346514e-02
1.05151577e-02
1.06346514e-02
1.09704772e-02
1.13106575e-02
1.11354544e-02
1.06344345e-02
1.02997855e-02
9.96538192e-03
9.88378173e-03
9.96538192e-03
1.02997855e-02
1.06344345e-02
1.05148398e-02
9.96538164e-03
9.63288405e-03
9.30040072e-03
9.24468653e-03
9.30040072e-03
9.63288405e-03
9.96538164e-03
9.88371794e-03
9.30040883e-03
8.96929041e-03
8.63817258e-03
8.60013299e-03
8.63817258e-03
8.96929041e-03
9.30040883e-03
9.24465035e-03
8.63817856e-03
8.30799635e-03
7.97781398e-03
7.95184371e-03
7.97781398e-03
8.30799635e-03
8.63817856e-03
8.60010879e-03
7.97781810e-03
7.64827479e-03
7.31873135e-03
7.30100312e-03
7.31873135e-03
7.64827479e-03
7.97781810e-03
7.95182720e-03
7.31873416e-03
6.98962702e-03
6.66051980e-03
6.64842073e-03
6.66051980e-03
6.98962702e-03
7.31873416e-03
7.30099186e-03
6.66052172e-03
6.33171232e-03
6.00290288e-03
5.99464941e-03
6.00290288e-03
6.33171232e-03
6.66052172e-03
6.64841303e-03
6.00290419e-03
5.67429795e-03
5.34569168e-03
5.34006690e-03
5.34569168e-03
5.67429795e-03
6.00290419e-03
5.99464415e-03
5.34569258e-03
5.01722484e-03
4.68875710e-03
4.68493140e-03
4.68875710e-03
5.01722484e-03
5.34569258e-03
5.34006330e-03
4.68875771e-03
4.36038423e-03
4.03201074e-03
4.02941965e-03
4.03201074e-03
4.36038423e-03
4.68875771e-03
4.68492893e-03
4.03201116e-03
3.70370155e-03
3.37539193e-03
3.37365296e-03
3.37539193e-03
3.70370155e-03
4.03201116e-03
4.02941795e-03
3.37539222e-03
3.04712560e-03
2.71885872e-03
2.71771499e-03
2.71885872e-03
3.04712560e-03
3.37539222e-03
3.37365177e-03
2.71885872e-03
2.39062185e-03
2.06238052e-03
2.06166304e-03
2.06238052e-03
2.39062185e-03
2.71885872e-03
2.71771394e-03
2.06237705e-03
1.73418374e-03
1.40591455e-03
1.40551611e-03
1.40591455e-03
1.73418374e-03
2.06237705e-03
2.06165903e-03
1.40585390e-03
1.07811532e-03
7.49040663e-04
7.48909257e-04
7.49040663e-04
1.07811532e-03
1.40585390e-03
1.40545454e-03
7.47921071e-04
4.28442116e-04
8.39935016e-05
8.39363441e-05
8.39935016e-05
4.28442116e-04
7.47921071e-04
7.47832411e-04
 
