# vtk DataFile Version 3.0 
Date: 5/30/2016   Time: 1:7
ASCII 
DATASET UNSTRUCTURED_GRID 
 
POINTS 80 float 
0.000000 0.000000 0.000000 
0.050000 0.000000 0.000000 
0.050000 1.000000 0.000000 
0.000000 1.000000 0.000000 
0.050000 0.000000 0.000000 
0.100000 0.000000 0.000000 
0.100000 1.000000 0.000000 
0.050000 1.000000 0.000000 
0.100000 0.000000 0.000000 
0.150000 0.000000 0.000000 
0.150000 1.000000 0.000000 
0.100000 1.000000 0.000000 
0.150000 0.000000 0.000000 
0.200000 0.000000 0.000000 
0.200000 1.000000 0.000000 
0.150000 1.000000 0.000000 
0.200000 0.000000 0.000000 
0.250000 0.000000 0.000000 
0.250000 1.000000 0.000000 
0.200000 1.000000 0.000000 
0.250000 0.000000 0.000000 
0.300000 0.000000 0.000000 
0.300000 1.000000 0.000000 
0.250000 1.000000 0.000000 
0.300000 0.000000 0.000000 
0.350000 0.000000 0.000000 
0.350000 1.000000 0.000000 
0.300000 1.000000 0.000000 
0.350000 0.000000 0.000000 
0.400000 0.000000 0.000000 
0.400000 1.000000 0.000000 
0.350000 1.000000 0.000000 
0.400000 0.000000 0.000000 
0.450000 0.000000 0.000000 
0.450000 1.000000 0.000000 
0.400000 1.000000 0.000000 
0.450000 0.000000 0.000000 
0.500000 0.000000 0.000000 
0.500000 1.000000 0.000000 
0.450000 1.000000 0.000000 
0.500000 0.000000 0.000000 
0.550000 0.000000 0.000000 
0.550000 1.000000 0.000000 
0.500000 1.000000 0.000000 
0.550000 0.000000 0.000000 
0.600000 0.000000 0.000000 
0.600000 1.000000 0.000000 
0.550000 1.000000 0.000000 
0.600000 0.000000 0.000000 
0.650000 0.000000 0.000000 
0.650000 1.000000 0.000000 
0.600000 1.000000 0.000000 
0.650000 0.000000 0.000000 
0.700000 0.000000 0.000000 
0.700000 1.000000 0.000000 
0.650000 1.000000 0.000000 
0.700000 0.000000 0.000000 
0.750000 0.000000 0.000000 
0.750000 1.000000 0.000000 
0.700000 1.000000 0.000000 
0.750000 0.000000 0.000000 
0.800000 0.000000 0.000000 
0.800000 1.000000 0.000000 
0.750000 1.000000 0.000000 
0.800000 0.000000 0.000000 
0.850000 0.000000 0.000000 
0.850000 1.000000 0.000000 
0.800000 1.000000 0.000000 
0.850000 0.000000 0.000000 
0.900000 0.000000 0.000000 
0.900000 1.000000 0.000000 
0.850000 1.000000 0.000000 
0.900000 0.000000 0.000000 
0.950000 0.000000 0.000000 
0.950000 1.000000 0.000000 
0.900000 1.000000 0.000000 
0.950000 0.000000 0.000000 
1.000000 0.000000 0.000000 
1.000000 1.000000 0.000000 
0.950000 1.000000 0.000000 
CELLS 20 100 
 4 0 1 2 3  
 4 4 5 6 7  
 4 8 9 10 11  
 4 12 13 14 15  
 4 16 17 18 19  
 4 20 21 22 23  
 4 24 25 26 27  
 4 28 29 30 31  
 4 32 33 34 35  
 4 36 37 38 39  
 4 40 41 42 43  
 4 44 45 46 47  
 4 48 49 50 51  
 4 52 53 54 55  
 4 56 57 58 59  
 4 60 61 62 63  
 4 64 65 66 67  
 4 68 69 70 71  
 4 72 73 74 75  
 4 76 77 78 79  
 
CELL_TYPES 20
7
7
7
7
7
7
7
7
7
7
7
7
7
7
7
7
7
7
7
7
CELL_DATA 20
FIELD FieldData 1
material 1 20 int
1
1
1
1
1
1
1
1
1
1
1
1
1
1
1
1
1
1
1
1
POINT_DATA 80 SCALARS flux_g1 double 
LOOKUP_TABLE   default 
3.00004210e-02
6.85294938e-03
6.85294938e-03
3.00004210e-02
1.23339034e-02
1.23262503e-02
1.23262503e-02
1.23339034e-02
1.21925320e-02
1.14815838e-02
1.14815838e-02
1.21925320e-02
1.14884556e-02
1.08215310e-02
1.08215310e-02
1.14884556e-02
1.08209899e-02
1.01503167e-02
1.01503167e-02
1.08209899e-02
1.01503651e-02
9.48003803e-03
9.48003803e-03
1.01503651e-02
9.48003353e-03
8.80967371e-03
8.80967371e-03
9.48003353e-03
8.80967413e-03
8.13931751e-03
8.13931751e-03
8.80967413e-03
8.13931747e-03
7.46896058e-03
7.46896058e-03
8.13931747e-03
7.46896059e-03
6.79860378e-03
6.79860378e-03
7.46896059e-03
6.79860378e-03
6.12824702e-03
6.12824702e-03
6.79860378e-03
6.12824702e-03
5.45789031e-03
5.45789031e-03
6.12824702e-03
5.45789031e-03
4.78753365e-03
4.78753365e-03
5.45789031e-03
4.78753365e-03
4.11717702e-03
4.11717702e-03
4.78753365e-03
4.11717701e-03
3.44682050e-03
3.44682050e-03
4.11717701e-03
3.44682060e-03
2.77646336e-03
2.77646336e-03
3.44682060e-03
2.77646228e-03
2.10611305e-03
2.10611305e-03
2.77646228e-03
2.10612451e-03
1.43569130e-03
1.43569130e-03
2.10612451e-03
1.43556498e-03
7.66034195e-04
7.66034195e-04
1.43556498e-03
7.67527524e-04
8.78528326e-05
8.78528326e-05
7.67527524e-04
 
