# vtk DataFile Version 3.0 
Date: 5/30/2016   Time: 3:26
ASCII 
DATASET UNSTRUCTURED_GRID 
 
POINTS 160 float 
0.000000 0.000000 0.000000 
0.025000 0.000000 0.000000 
0.050000 0.000000 0.000000 
0.050000 0.500000 0.000000 
0.050000 1.000000 0.000000 
0.025000 1.000000 0.000000 
0.000000 1.000000 0.000000 
0.000000 0.500000 0.000000 
0.050000 0.000000 0.000000 
0.075000 0.000000 0.000000 
0.100000 0.000000 0.000000 
0.100000 0.500000 0.000000 
0.100000 1.000000 0.000000 
0.075000 1.000000 0.000000 
0.050000 1.000000 0.000000 
0.050000 0.500000 0.000000 
0.100000 0.000000 0.000000 
0.125000 0.000000 0.000000 
0.150000 0.000000 0.000000 
0.150000 0.500000 0.000000 
0.150000 1.000000 0.000000 
0.125000 1.000000 0.000000 
0.100000 1.000000 0.000000 
0.100000 0.500000 0.000000 
0.150000 0.000000 0.000000 
0.175000 0.000000 0.000000 
0.200000 0.000000 0.000000 
0.200000 0.500000 0.000000 
0.200000 1.000000 0.000000 
0.175000 1.000000 0.000000 
0.150000 1.000000 0.000000 
0.150000 0.500000 0.000000 
0.200000 0.000000 0.000000 
0.225000 0.000000 0.000000 
0.250000 0.000000 0.000000 
0.250000 0.500000 0.000000 
0.250000 1.000000 0.000000 
0.225000 1.000000 0.000000 
0.200000 1.000000 0.000000 
0.200000 0.500000 0.000000 
0.250000 0.000000 0.000000 
0.275000 0.000000 0.000000 
0.300000 0.000000 0.000000 
0.300000 0.500000 0.000000 
0.300000 1.000000 0.000000 
0.275000 1.000000 0.000000 
0.250000 1.000000 0.000000 
0.250000 0.500000 0.000000 
0.300000 0.000000 0.000000 
0.325000 0.000000 0.000000 
0.350000 0.000000 0.000000 
0.350000 0.500000 0.000000 
0.350000 1.000000 0.000000 
0.325000 1.000000 0.000000 
0.300000 1.000000 0.000000 
0.300000 0.500000 0.000000 
0.350000 0.000000 0.000000 
0.375000 0.000000 0.000000 
0.400000 0.000000 0.000000 
0.400000 0.500000 0.000000 
0.400000 1.000000 0.000000 
0.375000 1.000000 0.000000 
0.350000 1.000000 0.000000 
0.350000 0.500000 0.000000 
0.400000 0.000000 0.000000 
0.425000 0.000000 0.000000 
0.450000 0.000000 0.000000 
0.450000 0.500000 0.000000 
0.450000 1.000000 0.000000 
0.425000 1.000000 0.000000 
0.400000 1.000000 0.000000 
0.400000 0.500000 0.000000 
0.450000 0.000000 0.000000 
0.475000 0.000000 0.000000 
0.500000 0.000000 0.000000 
0.500000 0.500000 0.000000 
0.500000 1.000000 0.000000 
0.475000 1.000000 0.000000 
0.450000 1.000000 0.000000 
0.450000 0.500000 0.000000 
0.500000 0.000000 0.000000 
0.525000 0.000000 0.000000 
0.550000 0.000000 0.000000 
0.550000 0.500000 0.000000 
0.550000 1.000000 0.000000 
0.525000 1.000000 0.000000 
0.500000 1.000000 0.000000 
0.500000 0.500000 0.000000 
0.550000 0.000000 0.000000 
0.575000 0.000000 0.000000 
0.600000 0.000000 0.000000 
0.600000 0.500000 0.000000 
0.600000 1.000000 0.000000 
0.575000 1.000000 0.000000 
0.550000 1.000000 0.000000 
0.550000 0.500000 0.000000 
0.600000 0.000000 0.000000 
0.625000 0.000000 0.000000 
0.650000 0.000000 0.000000 
0.650000 0.500000 0.000000 
0.650000 1.000000 0.000000 
0.625000 1.000000 0.000000 
0.600000 1.000000 0.000000 
0.600000 0.500000 0.000000 
0.650000 0.000000 0.000000 
0.675000 0.000000 0.000000 
0.700000 0.000000 0.000000 
0.700000 0.500000 0.000000 
0.700000 1.000000 0.000000 
0.675000 1.000000 0.000000 
0.650000 1.000000 0.000000 
0.650000 0.500000 0.000000 
0.700000 0.000000 0.000000 
0.725000 0.000000 0.000000 
0.750000 0.000000 0.000000 
0.750000 0.500000 0.000000 
0.750000 1.000000 0.000000 
0.725000 1.000000 0.000000 
0.700000 1.000000 0.000000 
0.700000 0.500000 0.000000 
0.750000 0.000000 0.000000 
0.775000 0.000000 0.000000 
0.800000 0.000000 0.000000 
0.800000 0.500000 0.000000 
0.800000 1.000000 0.000000 
0.775000 1.000000 0.000000 
0.750000 1.000000 0.000000 
0.750000 0.500000 0.000000 
0.800000 0.000000 0.000000 
0.825000 0.000000 0.000000 
0.850000 0.000000 0.000000 
0.850000 0.500000 0.000000 
0.850000 1.000000 0.000000 
0.825000 1.000000 0.000000 
0.800000 1.000000 0.000000 
0.800000 0.500000 0.000000 
0.850000 0.000000 0.000000 
0.875000 0.000000 0.000000 
0.900000 0.000000 0.000000 
0.900000 0.500000 0.000000 
0.900000 1.000000 0.000000 
0.875000 1.000000 0.000000 
0.850000 1.000000 0.000000 
0.850000 0.500000 0.000000 
0.900000 0.000000 0.000000 
0.925000 0.000000 0.000000 
0.950000 0.000000 0.000000 
0.950000 0.500000 0.000000 
0.950000 1.000000 0.000000 
0.925000 1.000000 0.000000 
0.900000 1.000000 0.000000 
0.900000 0.500000 0.000000 
0.950000 0.000000 0.000000 
0.975000 0.000000 0.000000 
1.000000 0.000000 0.000000 
1.000000 0.500000 0.000000 
1.000000 1.000000 0.000000 
0.975000 1.000000 0.000000 
0.950000 1.000000 0.000000 
0.950000 0.500000 0.000000 
CELLS 20 180 
 8 0 1 2 3 4 5 6 7  
 8 8 9 10 11 12 13 14 15  
 8 16 17 18 19 20 21 22 23  
 8 24 25 26 27 28 29 30 31  
 8 32 33 34 35 36 37 38 39  
 8 40 41 42 43 44 45 46 47  
 8 48 49 50 51 52 53 54 55  
 8 56 57 58 59 60 61 62 63  
 8 64 65 66 67 68 69 70 71  
 8 72 73 74 75 76 77 78 79  
 8 80 81 82 83 84 85 86 87  
 8 88 89 90 91 92 93 94 95  
 8 96 97 98 99 100 101 102 103  
 8 104 105 106 107 108 109 110 111  
 8 112 113 114 115 116 117 118 119  
 8 120 121 122 123 124 125 126 127  
 8 128 129 130 131 132 133 134 135  
 8 136 137 138 139 140 141 142 143  
 8 144 145 146 147 148 149 150 151  
 8 152 153 154 155 156 157 158 159  
 
CELL_TYPES 20
7
7
7
7
7
7
7
7
7
7
7
7
7
7
7
7
7
7
7
7
CELL_DATA 20
FIELD FieldData 1
material 1 20 int
1
1
1
1
1
1
1
1
1
1
1
1
1
1
1
1
1
1
1
1
POINT_DATA 160 SCALARS flux_g1 double 
LOOKUP_TABLE   default 
1.05635299e-01
-6.00421994e-02
3.85769112e-02
7.37756651e-03
3.85769112e-02
-6.00421994e-02
1.05635299e-01
1.30086023e-01
1.92801923e-02
7.80840447e-03
1.24191185e-02
1.11887325e-02
1.24191185e-02
7.80840447e-03
1.92801923e-02
1.50620181e-02
1.16386539e-02
1.05697818e-02
1.05888922e-02
9.72536361e-03
1.05888922e-02
1.05697818e-02
1.16386539e-02
1.07026423e-02
1.04993418e-02
1.01092836e-02
9.80109295e-03
9.28250162e-03
9.80109295e-03
1.01092836e-02
1.04993418e-02
9.76024347e-03
9.78997680e-03
9.47457681e-03
9.16924265e-03
8.80338560e-03
9.16924265e-03
9.47457681e-03
9.78997680e-03
9.28120761e-03
9.16346298e-03
8.86654405e-03
8.57129647e-03
8.31224408e-03
8.57129647e-03
8.86654405e-03
9.16346298e-03
8.80392041e-03
8.56750516e-03
8.27918243e-03
7.99077757e-03
7.80655753e-03
7.99077757e-03
8.27918243e-03
8.56750516e-03
8.31249815e-03
7.98812837e-03
7.70463506e-03
7.42060456e-03
7.28937846e-03
7.42060456e-03
7.70463506e-03
7.98812837e-03
7.80673772e-03
7.41873478e-03
7.13817826e-03
6.85702794e-03
6.76345714e-03
6.85702794e-03
7.13817826e-03
7.41873478e-03
7.28950344e-03
6.85570165e-03
6.57701547e-03
6.29780441e-03
6.23104895e-03
6.29780441e-03
6.57701547e-03
6.85570165e-03
6.76354499e-03
6.29686083e-03
6.01940166e-03
5.74151255e-03
5.69388220e-03
5.74151255e-03
6.01940166e-03
6.29686083e-03
6.23111105e-03
5.74083967e-03
5.46419772e-03
5.18720857e-03
5.15323668e-03
5.18720857e-03
5.46419772e-03
5.74083967e-03
5.69392628e-03
5.18672744e-03
4.91062667e-03
4.63423186e-03
4.61002953e-03
4.63423186e-03
4.91062667e-03
5.18672744e-03
5.15326808e-03
4.63388620e-03
4.35812427e-03
4.08207555e-03
4.06487803e-03
4.08207555e-03
4.35812427e-03
4.63388620e-03
4.61005197e-03
4.08182439e-03
3.80622681e-03
3.53027047e-03
3.51811801e-03
3.53027047e-03
3.80622681e-03
4.08182439e-03
4.06489418e-03
3.53008213e-03
3.25444967e-03
2.97822086e-03
2.96973511e-03
2.97822086e-03
3.25444967e-03
3.53008213e-03
3.51812985e-03
2.97806591e-03
2.70208082e-03
2.42484355e-03
2.41908386e-03
2.42484355e-03
2.70208082e-03
2.97806591e-03
2.96974354e-03
2.42466873e-03
2.14771847e-03
1.86749312e-03
1.86380705e-03
1.86749312e-03
2.14771847e-03
2.42466873e-03
2.41909956e-03
1.86712262e-03
1.58797178e-03
1.29645983e-03
1.29591476e-03
1.29645983e-03
1.58797178e-03
1.86712262e-03
1.86370660e-03
1.29244191e-03
1.02297775e-03
6.52684640e-04
6.45000948e-04
6.52684640e-04
1.02297775e-03
1.29244191e-03
1.29747897e-03
 
