# vtk DataFile Version 3.0 
Date: 5/29/2016   Time: 9:22
ASCII 
DATASET UNSTRUCTURED_GRID 
 
POINTS 80 float 
0.000000 0.000000 0.000000 
0.050000 0.000000 0.000000 
0.100000 0.000000 0.000000 
0.100000 0.500000 0.000000 
0.100000 1.000000 0.000000 
0.050000 1.000000 0.000000 
0.000000 1.000000 0.000000 
0.000000 0.500000 0.000000 
0.100000 0.000000 0.000000 
0.150000 0.000000 0.000000 
0.200000 0.000000 0.000000 
0.200000 0.500000 0.000000 
0.200000 1.000000 0.000000 
0.150000 1.000000 0.000000 
0.100000 1.000000 0.000000 
0.100000 0.500000 0.000000 
0.200000 0.000000 0.000000 
0.250000 0.000000 0.000000 
0.300000 0.000000 0.000000 
0.300000 0.500000 0.000000 
0.300000 1.000000 0.000000 
0.250000 1.000000 0.000000 
0.200000 1.000000 0.000000 
0.200000 0.500000 0.000000 
0.300000 0.000000 0.000000 
0.350000 0.000000 0.000000 
0.400000 0.000000 0.000000 
0.400000 0.500000 0.000000 
0.400000 1.000000 0.000000 
0.350000 1.000000 0.000000 
0.300000 1.000000 0.000000 
0.300000 0.500000 0.000000 
0.400000 0.000000 0.000000 
0.450000 0.000000 0.000000 
0.500000 0.000000 0.000000 
0.500000 0.500000 0.000000 
0.500000 1.000000 0.000000 
0.450000 1.000000 0.000000 
0.400000 1.000000 0.000000 
0.400000 0.500000 0.000000 
0.500000 0.000000 0.000000 
0.550000 0.000000 0.000000 
0.600000 0.000000 0.000000 
0.600000 0.500000 0.000000 
0.600000 1.000000 0.000000 
0.550000 1.000000 0.000000 
0.500000 1.000000 0.000000 
0.500000 0.500000 0.000000 
0.600000 0.000000 0.000000 
0.650000 0.000000 0.000000 
0.700000 0.000000 0.000000 
0.700000 0.500000 0.000000 
0.700000 1.000000 0.000000 
0.650000 1.000000 0.000000 
0.600000 1.000000 0.000000 
0.600000 0.500000 0.000000 
0.700000 0.000000 0.000000 
0.750000 0.000000 0.000000 
0.800000 0.000000 0.000000 
0.800000 0.500000 0.000000 
0.800000 1.000000 0.000000 
0.750000 1.000000 0.000000 
0.700000 1.000000 0.000000 
0.700000 0.500000 0.000000 
0.800000 0.000000 0.000000 
0.850000 0.000000 0.000000 
0.900000 0.000000 0.000000 
0.900000 0.500000 0.000000 
0.900000 1.000000 0.000000 
0.850000 1.000000 0.000000 
0.800000 1.000000 0.000000 
0.800000 0.500000 0.000000 
0.900000 0.000000 0.000000 
0.950000 0.000000 0.000000 
1.000000 0.000000 0.000000 
1.000000 0.500000 0.000000 
1.000000 1.000000 0.000000 
0.950000 1.000000 0.000000 
0.900000 1.000000 0.000000 
0.900000 0.500000 0.000000 
CELLS 10 90 
 8 0 1 2 3 4 5 6 7  
 8 8 9 10 11 12 13 14 15  
 8 16 17 18 19 20 21 22 23  
 8 24 25 26 27 28 29 30 31  
 8 32 33 34 35 36 37 38 39  
 8 40 41 42 43 44 45 46 47  
 8 48 49 50 51 52 53 54 55  
 8 56 57 58 59 60 61 62 63  
 8 64 65 66 67 68 69 70 71  
 8 72 73 74 75 76 77 78 79  
 
CELL_TYPES 10
7
7
7
7
7
7
7
7
7
7
CELL_DATA 10
FIELD FieldData 1
material 1 10 int
1
1
1
1
1
1
1
1
1
1
POINT_DATA 80 SCALARS flux_g1 double 
LOOKUP_TABLE   default 
2.00374809e-01
9.98783113e-03
2.46217074e-02
2.43932204e-02
2.46217074e-02
9.98783113e-03
2.00374809e-01
2.00546023e-01
2.25753490e-02
1.09624241e-02
1.10291423e-02
1.10176450e-02
1.10291423e-02
1.09624241e-02
2.25753490e-02
2.26016715e-02
1.09103777e-02
9.53460618e-03
8.99907416e-03
8.99885029e-03
8.99907416e-03
9.53460618e-03
1.09103777e-02
1.09161750e-02
8.98972979e-03
8.37499900e-03
7.90659339e-03
7.90696797e-03
7.90659339e-03
8.37499900e-03
8.98972979e-03
8.99178101e-03
7.90486303e-03
7.43229360e-03
7.02159895e-03
7.02189907e-03
7.02159895e-03
7.43229360e-03
7.90486303e-03
7.90554990e-03
7.02086776e-03
6.61018135e-03
6.23252745e-03
6.23267118e-03
6.23252745e-03
6.61018135e-03
7.02086776e-03
7.02121939e-03
6.23208305e-03
5.85457459e-03
5.49355939e-03
5.49363166e-03
5.49355939e-03
5.85457459e-03
6.23208305e-03
6.23225199e-03
5.49320195e-03
5.13231113e-03
4.77455447e-03
4.77458240e-03
4.77455447e-03
5.13231113e-03
5.49320195e-03
5.49329467e-03
4.77409701e-03
4.41705277e-03
4.04270918e-03
4.04270912e-03
4.04270918e-03
4.41705277e-03
4.77409701e-03
4.77415669e-03
4.04108274e-03
3.67923339e-03
3.18204545e-03
3.18193741e-03
3.18204545e-03
3.67923339e-03
4.04108274e-03
4.04125097e-03
 
