# vtk DataFile Version 3.0 
Date: 5/30/2016   Time: 0:20
ASCII 
DATASET UNSTRUCTURED_GRID 
 
POINTS 80 float 
0.000000 0.000000 0.000000 
0.050000 0.000000 0.000000 
0.050000 1.000000 0.000000 
0.000000 1.000000 0.000000 
0.050000 0.000000 0.000000 
0.100000 0.000000 0.000000 
0.100000 1.000000 0.000000 
0.050000 1.000000 0.000000 
0.100000 0.000000 0.000000 
0.150000 0.000000 0.000000 
0.150000 1.000000 0.000000 
0.100000 1.000000 0.000000 
0.150000 0.000000 0.000000 
0.200000 0.000000 0.000000 
0.200000 1.000000 0.000000 
0.150000 1.000000 0.000000 
0.200000 0.000000 0.000000 
0.250000 0.000000 0.000000 
0.250000 1.000000 0.000000 
0.200000 1.000000 0.000000 
0.250000 0.000000 0.000000 
0.300000 0.000000 0.000000 
0.300000 1.000000 0.000000 
0.250000 1.000000 0.000000 
0.300000 0.000000 0.000000 
0.350000 0.000000 0.000000 
0.350000 1.000000 0.000000 
0.300000 1.000000 0.000000 
0.350000 0.000000 0.000000 
0.400000 0.000000 0.000000 
0.400000 1.000000 0.000000 
0.350000 1.000000 0.000000 
0.400000 0.000000 0.000000 
0.450000 0.000000 0.000000 
0.450000 1.000000 0.000000 
0.400000 1.000000 0.000000 
0.450000 0.000000 0.000000 
0.500000 0.000000 0.000000 
0.500000 1.000000 0.000000 
0.450000 1.000000 0.000000 
0.500000 0.000000 0.000000 
0.550000 0.000000 0.000000 
0.550000 1.000000 0.000000 
0.500000 1.000000 0.000000 
0.550000 0.000000 0.000000 
0.600000 0.000000 0.000000 
0.600000 1.000000 0.000000 
0.550000 1.000000 0.000000 
0.600000 0.000000 0.000000 
0.650000 0.000000 0.000000 
0.650000 1.000000 0.000000 
0.600000 1.000000 0.000000 
0.650000 0.000000 0.000000 
0.700000 0.000000 0.000000 
0.700000 1.000000 0.000000 
0.650000 1.000000 0.000000 
0.700000 0.000000 0.000000 
0.750000 0.000000 0.000000 
0.750000 1.000000 0.000000 
0.700000 1.000000 0.000000 
0.750000 0.000000 0.000000 
0.800000 0.000000 0.000000 
0.800000 1.000000 0.000000 
0.750000 1.000000 0.000000 
0.800000 0.000000 0.000000 
0.850000 0.000000 0.000000 
0.850000 1.000000 0.000000 
0.800000 1.000000 0.000000 
0.850000 0.000000 0.000000 
0.900000 0.000000 0.000000 
0.900000 1.000000 0.000000 
0.850000 1.000000 0.000000 
0.900000 0.000000 0.000000 
0.950000 0.000000 0.000000 
0.950000 1.000000 0.000000 
0.900000 1.000000 0.000000 
0.950000 0.000000 0.000000 
1.000000 0.000000 0.000000 
1.000000 1.000000 0.000000 
0.950000 1.000000 0.000000 
CELLS 20 100 
 4 0 1 2 3  
 4 4 5 6 7  
 4 8 9 10 11  
 4 12 13 14 15  
 4 16 17 18 19  
 4 20 21 22 23  
 4 24 25 26 27  
 4 28 29 30 31  
 4 32 33 34 35  
 4 36 37 38 39  
 4 40 41 42 43  
 4 44 45 46 47  
 4 48 49 50 51  
 4 52 53 54 55  
 4 56 57 58 59  
 4 60 61 62 63  
 4 64 65 66 67  
 4 68 69 70 71  
 4 72 73 74 75  
 4 76 77 78 79  
 
CELL_TYPES 20
7
7
7
7
7
7
7
7
7
7
7
7
7
7
7
7
7
7
7
7
CELL_DATA 20
FIELD FieldData 1
material 1 20 int
1
1
1
1
1
1
1
1
1
1
1
1
1
1
1
1
1
1
1
1
POINT_DATA 80 SCALARS flux_g1 double 
LOOKUP_TABLE   default 
1.88838587e-01
5.54786670e-02
5.54786670e-02
1.88838587e-01
5.05972853e-02
2.12542080e-02
2.12542080e-02
5.05972853e-02
2.01978711e-02
1.31486399e-02
1.31486399e-02
2.01978711e-02
1.29102277e-02
1.07525125e-02
1.07525125e-02
1.29102277e-02
1.06921245e-02
9.68432816e-03
9.68432816e-03
1.06921245e-02
9.66470585e-03
8.97895082e-03
8.97895082e-03
9.66470585e-03
8.96996152e-03
8.40768851e-03
8.40768851e-03
8.96996152e-03
8.40227872e-03
7.90584451e-03
7.90584451e-03
8.40227872e-03
7.90208731e-03
7.44857027e-03
7.44857027e-03
7.90208731e-03
7.44577330e-03
7.02276402e-03
7.02276402e-03
7.44577330e-03
7.02058990e-03
6.61996751e-03
6.61996751e-03
7.02058990e-03
6.61821291e-03
6.23411081e-03
6.23411081e-03
6.61821291e-03
6.23263733e-03
5.86052796e-03
5.86052796e-03
6.23263733e-03
5.85923234e-03
5.49538440e-03
5.49538440e-03
5.85923234e-03
5.49418090e-03
5.13525966e-03
5.13525966e-03
5.49418090e-03
5.13406536e-03
4.77674881e-03
4.77674881e-03
5.13406536e-03
4.77546292e-03
4.41586391e-03
4.41586391e-03
4.77546292e-03
4.41431358e-03
4.04646724e-03
4.04646724e-03
4.41431358e-03
4.04419976e-03
3.65435430e-03
3.65435430e-03
4.04419976e-03
3.64971988e-03
3.19132324e-03
3.19132324e-03
3.64971988e-03
 
