# vtk DataFile Version 3.0 
Date: 5/30/2016   Time: 5:18
ASCII 
DATASET UNSTRUCTURED_GRID 
 
POINTS 160 float 
0.000000 0.000000 0.000000 
0.025000 0.000000 0.000000 
0.050000 0.000000 0.000000 
0.050000 0.500000 0.000000 
0.050000 1.000000 0.000000 
0.025000 1.000000 0.000000 
0.000000 1.000000 0.000000 
0.000000 0.500000 0.000000 
0.050000 0.000000 0.000000 
0.075000 0.000000 0.000000 
0.100000 0.000000 0.000000 
0.100000 0.500000 0.000000 
0.100000 1.000000 0.000000 
0.075000 1.000000 0.000000 
0.050000 1.000000 0.000000 
0.050000 0.500000 0.000000 
0.100000 0.000000 0.000000 
0.125000 0.000000 0.000000 
0.150000 0.000000 0.000000 
0.150000 0.500000 0.000000 
0.150000 1.000000 0.000000 
0.125000 1.000000 0.000000 
0.100000 1.000000 0.000000 
0.100000 0.500000 0.000000 
0.150000 0.000000 0.000000 
0.175000 0.000000 0.000000 
0.200000 0.000000 0.000000 
0.200000 0.500000 0.000000 
0.200000 1.000000 0.000000 
0.175000 1.000000 0.000000 
0.150000 1.000000 0.000000 
0.150000 0.500000 0.000000 
0.200000 0.000000 0.000000 
0.225000 0.000000 0.000000 
0.250000 0.000000 0.000000 
0.250000 0.500000 0.000000 
0.250000 1.000000 0.000000 
0.225000 1.000000 0.000000 
0.200000 1.000000 0.000000 
0.200000 0.500000 0.000000 
0.250000 0.000000 0.000000 
0.275000 0.000000 0.000000 
0.300000 0.000000 0.000000 
0.300000 0.500000 0.000000 
0.300000 1.000000 0.000000 
0.275000 1.000000 0.000000 
0.250000 1.000000 0.000000 
0.250000 0.500000 0.000000 
0.300000 0.000000 0.000000 
0.325000 0.000000 0.000000 
0.350000 0.000000 0.000000 
0.350000 0.500000 0.000000 
0.350000 1.000000 0.000000 
0.325000 1.000000 0.000000 
0.300000 1.000000 0.000000 
0.300000 0.500000 0.000000 
0.350000 0.000000 0.000000 
0.375000 0.000000 0.000000 
0.400000 0.000000 0.000000 
0.400000 0.500000 0.000000 
0.400000 1.000000 0.000000 
0.375000 1.000000 0.000000 
0.350000 1.000000 0.000000 
0.350000 0.500000 0.000000 
0.400000 0.000000 0.000000 
0.425000 0.000000 0.000000 
0.450000 0.000000 0.000000 
0.450000 0.500000 0.000000 
0.450000 1.000000 0.000000 
0.425000 1.000000 0.000000 
0.400000 1.000000 0.000000 
0.400000 0.500000 0.000000 
0.450000 0.000000 0.000000 
0.475000 0.000000 0.000000 
0.500000 0.000000 0.000000 
0.500000 0.500000 0.000000 
0.500000 1.000000 0.000000 
0.475000 1.000000 0.000000 
0.450000 1.000000 0.000000 
0.450000 0.500000 0.000000 
0.500000 0.000000 0.000000 
0.525000 0.000000 0.000000 
0.550000 0.000000 0.000000 
0.550000 0.500000 0.000000 
0.550000 1.000000 0.000000 
0.525000 1.000000 0.000000 
0.500000 1.000000 0.000000 
0.500000 0.500000 0.000000 
0.550000 0.000000 0.000000 
0.575000 0.000000 0.000000 
0.600000 0.000000 0.000000 
0.600000 0.500000 0.000000 
0.600000 1.000000 0.000000 
0.575000 1.000000 0.000000 
0.550000 1.000000 0.000000 
0.550000 0.500000 0.000000 
0.600000 0.000000 0.000000 
0.625000 0.000000 0.000000 
0.650000 0.000000 0.000000 
0.650000 0.500000 0.000000 
0.650000 1.000000 0.000000 
0.625000 1.000000 0.000000 
0.600000 1.000000 0.000000 
0.600000 0.500000 0.000000 
0.650000 0.000000 0.000000 
0.675000 0.000000 0.000000 
0.700000 0.000000 0.000000 
0.700000 0.500000 0.000000 
0.700000 1.000000 0.000000 
0.675000 1.000000 0.000000 
0.650000 1.000000 0.000000 
0.650000 0.500000 0.000000 
0.700000 0.000000 0.000000 
0.725000 0.000000 0.000000 
0.750000 0.000000 0.000000 
0.750000 0.500000 0.000000 
0.750000 1.000000 0.000000 
0.725000 1.000000 0.000000 
0.700000 1.000000 0.000000 
0.700000 0.500000 0.000000 
0.750000 0.000000 0.000000 
0.775000 0.000000 0.000000 
0.800000 0.000000 0.000000 
0.800000 0.500000 0.000000 
0.800000 1.000000 0.000000 
0.775000 1.000000 0.000000 
0.750000 1.000000 0.000000 
0.750000 0.500000 0.000000 
0.800000 0.000000 0.000000 
0.825000 0.000000 0.000000 
0.850000 0.000000 0.000000 
0.850000 0.500000 0.000000 
0.850000 1.000000 0.000000 
0.825000 1.000000 0.000000 
0.800000 1.000000 0.000000 
0.800000 0.500000 0.000000 
0.850000 0.000000 0.000000 
0.875000 0.000000 0.000000 
0.900000 0.000000 0.000000 
0.900000 0.500000 0.000000 
0.900000 1.000000 0.000000 
0.875000 1.000000 0.000000 
0.850000 1.000000 0.000000 
0.850000 0.500000 0.000000 
0.900000 0.000000 0.000000 
0.925000 0.000000 0.000000 
0.950000 0.000000 0.000000 
0.950000 0.500000 0.000000 
0.950000 1.000000 0.000000 
0.925000 1.000000 0.000000 
0.900000 1.000000 0.000000 
0.900000 0.500000 0.000000 
0.950000 0.000000 0.000000 
0.975000 0.000000 0.000000 
1.000000 0.000000 0.000000 
1.000000 0.500000 0.000000 
1.000000 1.000000 0.000000 
0.975000 1.000000 0.000000 
0.950000 1.000000 0.000000 
0.950000 0.500000 0.000000 
CELLS 20 180 
 8 0 1 2 3 4 5 6 7  
 8 8 9 10 11 12 13 14 15  
 8 16 17 18 19 20 21 22 23  
 8 24 25 26 27 28 29 30 31  
 8 32 33 34 35 36 37 38 39  
 8 40 41 42 43 44 45 46 47  
 8 48 49 50 51 52 53 54 55  
 8 56 57 58 59 60 61 62 63  
 8 64 65 66 67 68 69 70 71  
 8 72 73 74 75 76 77 78 79  
 8 80 81 82 83 84 85 86 87  
 8 88 89 90 91 92 93 94 95  
 8 96 97 98 99 100 101 102 103  
 8 104 105 106 107 108 109 110 111  
 8 112 113 114 115 116 117 118 119  
 8 120 121 122 123 124 125 126 127  
 8 128 129 130 131 132 133 134 135  
 8 136 137 138 139 140 141 142 143  
 8 144 145 146 147 148 149 150 151  
 8 152 153 154 155 156 157 158 159  
 
CELL_TYPES 20
7
7
7
7
7
7
7
7
7
7
7
7
7
7
7
7
7
7
7
7
CELL_DATA 20
FIELD FieldData 1
material 1 20 int
1
1
1
1
1
1
1
1
1
1
1
1
1
1
1
1
1
1
1
1
POINT_DATA 160 SCALARS flux_g1 double 
LOOKUP_TABLE   default 
1.12799780e-01
-6.11177860e-02
2.90977833e-02
2.85827501e-02
2.90977833e-02
-6.11177860e-02
1.12799780e-01
1.13203657e-01
1.81493373e-02
6.74857573e-03
1.20193915e-02
1.20013676e-02
1.20193915e-02
6.74857573e-03
1.81493373e-02
1.80805676e-02
1.13388452e-02
1.02703164e-02
1.03081004e-02
1.02943199e-02
1.03081004e-02
1.02703164e-02
1.13388452e-02
1.13247371e-02
1.02638605e-02
9.90143517e-03
9.63044668e-03
9.62243802e-03
9.63044668e-03
9.90143517e-03
1.02638605e-02
1.02522384e-02
9.62738128e-03
9.33103211e-03
9.04919470e-03
9.04354693e-03
9.04919470e-03
9.33103211e-03
9.62738128e-03
9.61942586e-03
9.04886938e-03
8.76538422e-03
8.48660767e-03
8.48262141e-03
8.48660767e-03
8.76538422e-03
9.04886938e-03
9.04325654e-03
8.48653075e-03
8.20766977e-03
7.93084730e-03
7.92802060e-03
7.93084730e-03
8.20766977e-03
8.48653075e-03
8.48256089e-03
7.93081572e-03
7.65401779e-03
7.37818114e-03
7.37617377e-03
7.37818114e-03
7.65401779e-03
7.93081572e-03
7.92800015e-03
7.37816573e-03
7.10235772e-03
6.82701915e-03
6.82559240e-03
6.82701915e-03
7.10235772e-03
7.37816573e-03
7.37616601e-03
6.82701103e-03
6.55169578e-03
6.27661186e-03
6.27559740e-03
6.27661186e-03
6.55169578e-03
6.82701103e-03
6.82558962e-03
6.27660728e-03
6.00154110e-03
5.72658351e-03
5.72586222e-03
5.72658351e-03
6.00154110e-03
6.27660728e-03
6.27559658e-03
5.72658064e-03
5.45163628e-03
5.17672841e-03
5.17621582e-03
5.17672841e-03
5.45163628e-03
5.72658064e-03
5.72586201e-03
5.17672621e-03
4.90182829e-03
4.62690959e-03
4.62654580e-03
4.62690959e-03
4.90182829e-03
5.17672621e-03
5.17621552e-03
4.62690724e-03
4.35199651e-03
4.07699327e-03
4.07673581e-03
4.07699327e-03
4.35199651e-03
4.62690724e-03
4.62654482e-03
4.07698963e-03
3.80199410e-03
3.52677734e-03
3.52659619e-03
3.52677734e-03
3.80199410e-03
4.07698963e-03
4.07673319e-03
3.52677008e-03
3.25156445e-03
2.97585885e-03
2.97573297e-03
2.97585885e-03
3.25156445e-03
3.52677008e-03
3.52658979e-03
2.97584175e-03
2.70016395e-03
2.42329914e-03
2.42321431e-03
2.42329914e-03
2.70016395e-03
2.97584175e-03
2.97571676e-03
2.42324916e-03
2.14651563e-03
1.86655141e-03
1.86649716e-03
1.86655141e-03
2.14651563e-03
2.42324916e-03
2.42316618e-03
1.86632171e-03
1.58758888e-03
1.29640206e-03
1.29639920e-03
1.29640206e-03
1.58758888e-03
1.86632171e-03
1.86627015e-03
1.29416516e-03
1.02261673e-03
6.50491942e-04
6.50367196e-04
6.50491942e-04
1.02261673e-03
1.29416516e-03
1.29425296e-03
 
