# vtk DataFile Version 3.0 
Date: 5/29/2016   Time: 12:28
ASCII 
DATASET UNSTRUCTURED_GRID 
 
POINTS 80 float 
0.000000 0.000000 0.000000 
0.050000 0.000000 0.000000 
0.100000 0.000000 0.000000 
0.100000 0.500000 0.000000 
0.100000 1.000000 0.000000 
0.050000 1.000000 0.000000 
0.000000 1.000000 0.000000 
0.000000 0.500000 0.000000 
0.100000 0.000000 0.000000 
0.150000 0.000000 0.000000 
0.200000 0.000000 0.000000 
0.200000 0.500000 0.000000 
0.200000 1.000000 0.000000 
0.150000 1.000000 0.000000 
0.100000 1.000000 0.000000 
0.100000 0.500000 0.000000 
0.200000 0.000000 0.000000 
0.250000 0.000000 0.000000 
0.300000 0.000000 0.000000 
0.300000 0.500000 0.000000 
0.300000 1.000000 0.000000 
0.250000 1.000000 0.000000 
0.200000 1.000000 0.000000 
0.200000 0.500000 0.000000 
0.300000 0.000000 0.000000 
0.350000 0.000000 0.000000 
0.400000 0.000000 0.000000 
0.400000 0.500000 0.000000 
0.400000 1.000000 0.000000 
0.350000 1.000000 0.000000 
0.300000 1.000000 0.000000 
0.300000 0.500000 0.000000 
0.400000 0.000000 0.000000 
0.450000 0.000000 0.000000 
0.500000 0.000000 0.000000 
0.500000 0.500000 0.000000 
0.500000 1.000000 0.000000 
0.450000 1.000000 0.000000 
0.400000 1.000000 0.000000 
0.400000 0.500000 0.000000 
0.500000 0.000000 0.000000 
0.550000 0.000000 0.000000 
0.600000 0.000000 0.000000 
0.600000 0.500000 0.000000 
0.600000 1.000000 0.000000 
0.550000 1.000000 0.000000 
0.500000 1.000000 0.000000 
0.500000 0.500000 0.000000 
0.600000 0.000000 0.000000 
0.650000 0.000000 0.000000 
0.700000 0.000000 0.000000 
0.700000 0.500000 0.000000 
0.700000 1.000000 0.000000 
0.650000 1.000000 0.000000 
0.600000 1.000000 0.000000 
0.600000 0.500000 0.000000 
0.700000 0.000000 0.000000 
0.750000 0.000000 0.000000 
0.800000 0.000000 0.000000 
0.800000 0.500000 0.000000 
0.800000 1.000000 0.000000 
0.750000 1.000000 0.000000 
0.700000 1.000000 0.000000 
0.700000 0.500000 0.000000 
0.800000 0.000000 0.000000 
0.850000 0.000000 0.000000 
0.900000 0.000000 0.000000 
0.900000 0.500000 0.000000 
0.900000 1.000000 0.000000 
0.850000 1.000000 0.000000 
0.800000 1.000000 0.000000 
0.800000 0.500000 0.000000 
0.900000 0.000000 0.000000 
0.950000 0.000000 0.000000 
1.000000 0.000000 0.000000 
1.000000 0.500000 0.000000 
1.000000 1.000000 0.000000 
0.950000 1.000000 0.000000 
0.900000 1.000000 0.000000 
0.900000 0.500000 0.000000 
CELLS 10 90 
 8 0 1 2 3 4 5 6 7  
 8 8 9 10 11 12 13 14 15  
 8 16 17 18 19 20 21 22 23  
 8 24 25 26 27 28 29 30 31  
 8 32 33 34 35 36 37 38 39  
 8 40 41 42 43 44 45 46 47  
 8 48 49 50 51 52 53 54 55  
 8 56 57 58 59 60 61 62 63  
 8 64 65 66 67 68 69 70 71  
 8 72 73 74 75 76 77 78 79  
 
CELL_TYPES 10
7
7
7
7
7
7
7
7
7
7
CELL_DATA 10
FIELD FieldData 1
material 1 10 int
1
1
1
1
1
1
1
1
1
1
POINT_DATA 80 SCALARS flux_g1 double 
LOOKUP_TABLE   default 
2.93664408e-02
-2.59654841e-03
2.67679851e-02
-3.93457822e-03
2.67679851e-02
-2.59654841e-03
2.93664408e-02
3.51702848e-02
1.98742407e-02
1.66498865e-02
1.46517863e-02
3.48595668e-03
1.46517863e-02
1.66498865e-02
1.98742407e-02
-2.55586482e-03
1.44258294e-02
1.28252180e-02
1.12784115e-02
5.86207082e-03
1.12784115e-02
1.28252180e-02
1.44258294e-02
3.39646808e-03
1.12062478e-02
1.00967604e-02
8.99134388e-03
6.36895488e-03
8.99134388e-03
1.00967604e-02
1.12062478e-02
5.84037486e-03
8.95823116e-03
8.07733430e-03
7.19726501e-03
5.92699587e-03
7.19726501e-03
8.07733430e-03
8.95823116e-03
6.35757783e-03
7.18125852e-03
6.41041480e-03
5.63989897e-03
5.02610522e-03
5.63989897e-03
6.41041480e-03
7.18125852e-03
5.92152839e-03
5.63212122e-03
4.91442638e-03
4.19688027e-03
3.90334067e-03
4.19688027e-03
4.91442638e-03
5.63212122e-03
5.02344338e-03
4.19305411e-03
3.50081172e-03
2.80855673e-03
2.67443009e-03
2.80855673e-03
3.50081172e-03
4.19305411e-03
3.90203522e-03
2.80652785e-03
2.12640924e-03
1.44497121e-03
1.39655318e-03
1.44497121e-03
2.12640924e-03
2.80652785e-03
2.67372846e-03
1.44203964e-03
7.77395578e-04
8.91339952e-05
8.35337798e-05
8.91339952e-05
7.77395578e-04
1.44203964e-03
1.39674050e-03
 
