# vtk DataFile Version 3.0 
Date: 6/2/2016   Time: 15:0
ASCII 
DATASET UNSTRUCTURED_GRID 
 
POINTS 80 float 
0.000000 0.000000 0.000000 
0.050000 0.000000 0.000000 
0.100000 0.000000 0.000000 
0.100000 0.500000 0.000000 
0.100000 1.000000 0.000000 
0.050000 1.000000 0.000000 
0.000000 1.000000 0.000000 
0.000000 0.500000 0.000000 
0.100000 0.000000 0.000000 
0.150000 0.000000 0.000000 
0.200000 0.000000 0.000000 
0.200000 0.500000 0.000000 
0.200000 1.000000 0.000000 
0.150000 1.000000 0.000000 
0.100000 1.000000 0.000000 
0.100000 0.500000 0.000000 
0.200000 0.000000 0.000000 
0.250000 0.000000 0.000000 
0.300000 0.000000 0.000000 
0.300000 0.500000 0.000000 
0.300000 1.000000 0.000000 
0.250000 1.000000 0.000000 
0.200000 1.000000 0.000000 
0.200000 0.500000 0.000000 
0.300000 0.000000 0.000000 
0.350000 0.000000 0.000000 
0.400000 0.000000 0.000000 
0.400000 0.500000 0.000000 
0.400000 1.000000 0.000000 
0.350000 1.000000 0.000000 
0.300000 1.000000 0.000000 
0.300000 0.500000 0.000000 
0.400000 0.000000 0.000000 
0.450000 0.000000 0.000000 
0.500000 0.000000 0.000000 
0.500000 0.500000 0.000000 
0.500000 1.000000 0.000000 
0.450000 1.000000 0.000000 
0.400000 1.000000 0.000000 
0.400000 0.500000 0.000000 
0.500000 0.000000 0.000000 
0.550000 0.000000 0.000000 
0.600000 0.000000 0.000000 
0.600000 0.500000 0.000000 
0.600000 1.000000 0.000000 
0.550000 1.000000 0.000000 
0.500000 1.000000 0.000000 
0.500000 0.500000 0.000000 
0.600000 0.000000 0.000000 
0.650000 0.000000 0.000000 
0.700000 0.000000 0.000000 
0.700000 0.500000 0.000000 
0.700000 1.000000 0.000000 
0.650000 1.000000 0.000000 
0.600000 1.000000 0.000000 
0.600000 0.500000 0.000000 
0.700000 0.000000 0.000000 
0.750000 0.000000 0.000000 
0.800000 0.000000 0.000000 
0.800000 0.500000 0.000000 
0.800000 1.000000 0.000000 
0.750000 1.000000 0.000000 
0.700000 1.000000 0.000000 
0.700000 0.500000 0.000000 
0.800000 0.000000 0.000000 
0.850000 0.000000 0.000000 
0.900000 0.000000 0.000000 
0.900000 0.500000 0.000000 
0.900000 1.000000 0.000000 
0.850000 1.000000 0.000000 
0.800000 1.000000 0.000000 
0.800000 0.500000 0.000000 
0.900000 0.000000 0.000000 
0.950000 0.000000 0.000000 
1.000000 0.000000 0.000000 
1.000000 0.500000 0.000000 
1.000000 1.000000 0.000000 
0.950000 1.000000 0.000000 
0.900000 1.000000 0.000000 
0.900000 0.500000 0.000000 
CELLS 10 90 
 8 0 1 2 3 4 5 6 7  
 8 8 9 10 11 12 13 14 15  
 8 16 17 18 19 20 21 22 23  
 8 24 25 26 27 28 29 30 31  
 8 32 33 34 35 36 37 38 39  
 8 40 41 42 43 44 45 46 47  
 8 48 49 50 51 52 53 54 55  
 8 56 57 58 59 60 61 62 63  
 8 64 65 66 67 68 69 70 71  
 8 72 73 74 75 76 77 78 79  
 
CELL_TYPES 10
7
7
7
7
7
7
7
7
7
7
CELL_DATA 10
FIELD FieldData 1
material 1 10 int
1
1
1
1
1
1
1
1
1
1
POINT_DATA 80 SCALARS flux_g1 double 
LOOKUP_TABLE   default 
2.83374363e-02
-9.58863809e-03
-5.30364815e-03
5.00832207e-02
-5.30368122e-03
-9.58900430e-03
2.83374383e-02
2.54473484e-02
-4.79035439e-03
-2.32573696e-03
3.41047935e-04
3.25833142e-02
3.41075537e-04
-2.32571293e-03
-4.79039135e-03
4.65253544e-02
3.86742764e-04
1.73143118e-03
3.08991718e-03
2.28423035e-02
3.08996933e-03
1.73148841e-03
3.86769662e-04
3.19974498e-02
3.11835480e-03
3.68090443e-03
4.24983777e-03
1.63386813e-02
4.24989423e-03
3.68096879e-03
3.11840656e-03
2.24884206e-02
4.26728824e-03
4.34924707e-03
4.43505774e-03
1.18128740e-02
4.43510898e-03
4.34930665e-03
4.26734446e-03
1.61214701e-02
4.44580446e-03
4.23444755e-03
4.02543296e-03
8.49409525e-03
4.02547509e-03
4.23449747e-03
4.44585555e-03
1.16791070e-02
4.03210086e-03
3.64313945e-03
3.25558527e-03
5.90646354e-03
3.25561714e-03
3.64317831e-03
4.03214290e-03
8.41109828e-03
3.25980287e-03
2.76557386e-03
2.27215882e-03
3.75266992e-03
2.27218034e-03
2.76560170e-03
3.25983470e-03
5.85396601e-03
2.27495632e-03
1.72209213e-03
1.16958253e-03
1.84140758e-03
1.16959369e-03
1.72210931e-03
2.27497781e-03
3.71784711e-03
1.17167082e-03
5.92540498e-04
1.03338184e-05
4.34230871e-05
1.03340278e-05
5.92547010e-04
1.17168196e-03
1.81558403e-03
 
