# vtk DataFile Version 3.0 
Date: 5/29/2016   Time: 10:42
ASCII 
DATASET UNSTRUCTURED_GRID 
 
POINTS 40 float 
0.000000 0.000000 0.000000 
0.100000 0.000000 0.000000 
0.100000 1.000000 0.000000 
0.000000 1.000000 0.000000 
0.100000 0.000000 0.000000 
0.200000 0.000000 0.000000 
0.200000 1.000000 0.000000 
0.100000 1.000000 0.000000 
0.200000 0.000000 0.000000 
0.300000 0.000000 0.000000 
0.300000 1.000000 0.000000 
0.200000 1.000000 0.000000 
0.300000 0.000000 0.000000 
0.400000 0.000000 0.000000 
0.400000 1.000000 0.000000 
0.300000 1.000000 0.000000 
0.400000 0.000000 0.000000 
0.500000 0.000000 0.000000 
0.500000 1.000000 0.000000 
0.400000 1.000000 0.000000 
0.500000 0.000000 0.000000 
0.600000 0.000000 0.000000 
0.600000 1.000000 0.000000 
0.500000 1.000000 0.000000 
0.600000 0.000000 0.000000 
0.700000 0.000000 0.000000 
0.700000 1.000000 0.000000 
0.600000 1.000000 0.000000 
0.700000 0.000000 0.000000 
0.800000 0.000000 0.000000 
0.800000 1.000000 0.000000 
0.700000 1.000000 0.000000 
0.800000 0.000000 0.000000 
0.900000 0.000000 0.000000 
0.900000 1.000000 0.000000 
0.800000 1.000000 0.000000 
0.900000 0.000000 0.000000 
1.000000 0.000000 0.000000 
1.000000 1.000000 0.000000 
0.900000 1.000000 0.000000 
CELLS 10 50 
 4 0 1 2 3  
 4 4 5 6 7  
 4 8 9 10 11  
 4 12 13 14 15  
 4 16 17 18 19  
 4 20 21 22 23  
 4 24 25 26 27  
 4 28 29 30 31  
 4 32 33 34 35  
 4 36 37 38 39  
 
CELL_TYPES 10
7
7
7
7
7
7
7
7
7
7
CELL_DATA 10
FIELD FieldData 1
material 1 10 int
1
1
1
1
1
1
1
1
1
1
POINT_DATA 40 SCALARS flux_g1 double 
LOOKUP_TABLE   default 
2.65193717e-02
1.15437635e-02
1.15437635e-02
2.65193717e-02
1.23316731e-02
1.10278266e-02
1.10278266e-02
1.23316731e-02
1.10238556e-02
9.64726906e-03
9.64726906e-03
1.10238556e-02
9.64733237e-03
8.27194591e-03
8.27194591e-03
9.64733237e-03
8.27194447e-03
6.89653135e-03
6.89653135e-03
8.27194447e-03
6.89653138e-03
5.52112004e-03
5.52112004e-03
6.89653138e-03
5.52112004e-03
4.14570972e-03
4.14570972e-03
5.52112004e-03
4.14570976e-03
2.77029969e-03
2.77029969e-03
4.14570976e-03
2.77029832e-03
1.39491499e-03
1.39491499e-03
2.77029832e-03
1.39498395e-03
1.83134289e-05
1.83134289e-05
1.39498395e-03
 
