# vtk DataFile Version 3.0 
Date: 5/29/2016   Time: 14:37
ASCII 
DATASET UNSTRUCTURED_GRID 
 
POINTS 80 float 
0.000000 0.000000 0.000000 
0.050000 0.000000 0.000000 
0.100000 0.000000 0.000000 
0.100000 0.500000 0.000000 
0.100000 1.000000 0.000000 
0.050000 1.000000 0.000000 
0.000000 1.000000 0.000000 
0.000000 0.500000 0.000000 
0.100000 0.000000 0.000000 
0.150000 0.000000 0.000000 
0.200000 0.000000 0.000000 
0.200000 0.500000 0.000000 
0.200000 1.000000 0.000000 
0.150000 1.000000 0.000000 
0.100000 1.000000 0.000000 
0.100000 0.500000 0.000000 
0.200000 0.000000 0.000000 
0.250000 0.000000 0.000000 
0.300000 0.000000 0.000000 
0.300000 0.500000 0.000000 
0.300000 1.000000 0.000000 
0.250000 1.000000 0.000000 
0.200000 1.000000 0.000000 
0.200000 0.500000 0.000000 
0.300000 0.000000 0.000000 
0.350000 0.000000 0.000000 
0.400000 0.000000 0.000000 
0.400000 0.500000 0.000000 
0.400000 1.000000 0.000000 
0.350000 1.000000 0.000000 
0.300000 1.000000 0.000000 
0.300000 0.500000 0.000000 
0.400000 0.000000 0.000000 
0.450000 0.000000 0.000000 
0.500000 0.000000 0.000000 
0.500000 0.500000 0.000000 
0.500000 1.000000 0.000000 
0.450000 1.000000 0.000000 
0.400000 1.000000 0.000000 
0.400000 0.500000 0.000000 
0.500000 0.000000 0.000000 
0.550000 0.000000 0.000000 
0.600000 0.000000 0.000000 
0.600000 0.500000 0.000000 
0.600000 1.000000 0.000000 
0.550000 1.000000 0.000000 
0.500000 1.000000 0.000000 
0.500000 0.500000 0.000000 
0.600000 0.000000 0.000000 
0.650000 0.000000 0.000000 
0.700000 0.000000 0.000000 
0.700000 0.500000 0.000000 
0.700000 1.000000 0.000000 
0.650000 1.000000 0.000000 
0.600000 1.000000 0.000000 
0.600000 0.500000 0.000000 
0.700000 0.000000 0.000000 
0.750000 0.000000 0.000000 
0.800000 0.000000 0.000000 
0.800000 0.500000 0.000000 
0.800000 1.000000 0.000000 
0.750000 1.000000 0.000000 
0.700000 1.000000 0.000000 
0.700000 0.500000 0.000000 
0.800000 0.000000 0.000000 
0.850000 0.000000 0.000000 
0.900000 0.000000 0.000000 
0.900000 0.500000 0.000000 
0.900000 1.000000 0.000000 
0.850000 1.000000 0.000000 
0.800000 1.000000 0.000000 
0.800000 0.500000 0.000000 
0.900000 0.000000 0.000000 
0.950000 0.000000 0.000000 
1.000000 0.000000 0.000000 
1.000000 0.500000 0.000000 
1.000000 1.000000 0.000000 
0.950000 1.000000 0.000000 
0.900000 1.000000 0.000000 
0.900000 0.500000 0.000000 
CELLS 10 90 
 8 0 1 2 3 4 5 6 7  
 8 8 9 10 11 12 13 14 15  
 8 16 17 18 19 20 21 22 23  
 8 24 25 26 27 28 29 30 31  
 8 32 33 34 35 36 37 38 39  
 8 40 41 42 43 44 45 46 47  
 8 48 49 50 51 52 53 54 55  
 8 56 57 58 59 60 61 62 63  
 8 64 65 66 67 68 69 70 71  
 8 72 73 74 75 76 77 78 79  
 
CELL_TYPES 10
7
7
7
7
7
7
7
7
7
7
CELL_DATA 10
FIELD FieldData 1
material 1 10 int
1
1
1
1
1
1
1
1
1
1
POINT_DATA 80 SCALARS flux_g1 double 
LOOKUP_TABLE   default 
3.09855824e-02
-6.67539794e-03
1.74465021e-02
1.58680446e-02
1.74465021e-02
-6.67539794e-03
3.09855824e-02
3.12784848e-02
1.28962502e-02
1.13103029e-02
1.10530188e-02
1.05100233e-02
1.10530188e-02
1.13103029e-02
1.28962502e-02
1.17355498e-02
1.09738619e-02
1.02231731e-02
9.52782808e-03
9.27661099e-03
9.52782808e-03
1.02231731e-02
1.09738619e-02
1.04296726e-02
9.52526689e-03
8.83306290e-03
8.14397260e-03
8.02821039e-03
8.14397260e-03
8.83306290e-03
9.52526689e-03
9.27292374e-03
8.14399307e-03
7.46584651e-03
6.78789127e-03
6.73449015e-03
6.78789127e-03
7.46584651e-03
8.14399307e-03
8.02754703e-03
6.78795953e-03
6.11556467e-03
5.44318202e-03
5.41860556e-03
5.44318202e-03
6.11556467e-03
6.78795953e-03
6.73424438e-03
5.44321711e-03
4.77342830e-03
4.10363508e-03
4.09243840e-03
4.10363508e-03
4.77342830e-03
5.44321711e-03
5.41849466e-03
4.10364771e-03
3.43507414e-03
2.76641307e-03
2.76155554e-03
2.76641307e-03
3.43507414e-03
4.10364771e-03
4.09238329e-03
2.76635582e-03
2.09879379e-03
1.42981358e-03
1.42822974e-03
1.42981358e-03
2.09879379e-03
2.76635582e-03
2.76146658e-03
1.42864481e-03
7.69809389e-04
8.71351100e-05
8.69393589e-05
8.71351100e-05
7.69809389e-04
1.42864481e-03
1.42716575e-03
 
