# vtk DataFile Version 3.0 
Date: 5/30/2016   Time: 7:11
ASCII 
DATASET UNSTRUCTURED_GRID 
 
POINTS 160 float 
0.000000 0.000000 0.000000 
0.025000 0.000000 0.000000 
0.050000 0.000000 0.000000 
0.050000 0.500000 0.000000 
0.050000 1.000000 0.000000 
0.025000 1.000000 0.000000 
0.000000 1.000000 0.000000 
0.000000 0.500000 0.000000 
0.050000 0.000000 0.000000 
0.075000 0.000000 0.000000 
0.100000 0.000000 0.000000 
0.100000 0.500000 0.000000 
0.100000 1.000000 0.000000 
0.075000 1.000000 0.000000 
0.050000 1.000000 0.000000 
0.050000 0.500000 0.000000 
0.100000 0.000000 0.000000 
0.125000 0.000000 0.000000 
0.150000 0.000000 0.000000 
0.150000 0.500000 0.000000 
0.150000 1.000000 0.000000 
0.125000 1.000000 0.000000 
0.100000 1.000000 0.000000 
0.100000 0.500000 0.000000 
0.150000 0.000000 0.000000 
0.175000 0.000000 0.000000 
0.200000 0.000000 0.000000 
0.200000 0.500000 0.000000 
0.200000 1.000000 0.000000 
0.175000 1.000000 0.000000 
0.150000 1.000000 0.000000 
0.150000 0.500000 0.000000 
0.200000 0.000000 0.000000 
0.225000 0.000000 0.000000 
0.250000 0.000000 0.000000 
0.250000 0.500000 0.000000 
0.250000 1.000000 0.000000 
0.225000 1.000000 0.000000 
0.200000 1.000000 0.000000 
0.200000 0.500000 0.000000 
0.250000 0.000000 0.000000 
0.275000 0.000000 0.000000 
0.300000 0.000000 0.000000 
0.300000 0.500000 0.000000 
0.300000 1.000000 0.000000 
0.275000 1.000000 0.000000 
0.250000 1.000000 0.000000 
0.250000 0.500000 0.000000 
0.300000 0.000000 0.000000 
0.325000 0.000000 0.000000 
0.350000 0.000000 0.000000 
0.350000 0.500000 0.000000 
0.350000 1.000000 0.000000 
0.325000 1.000000 0.000000 
0.300000 1.000000 0.000000 
0.300000 0.500000 0.000000 
0.350000 0.000000 0.000000 
0.375000 0.000000 0.000000 
0.400000 0.000000 0.000000 
0.400000 0.500000 0.000000 
0.400000 1.000000 0.000000 
0.375000 1.000000 0.000000 
0.350000 1.000000 0.000000 
0.350000 0.500000 0.000000 
0.400000 0.000000 0.000000 
0.425000 0.000000 0.000000 
0.450000 0.000000 0.000000 
0.450000 0.500000 0.000000 
0.450000 1.000000 0.000000 
0.425000 1.000000 0.000000 
0.400000 1.000000 0.000000 
0.400000 0.500000 0.000000 
0.450000 0.000000 0.000000 
0.475000 0.000000 0.000000 
0.500000 0.000000 0.000000 
0.500000 0.500000 0.000000 
0.500000 1.000000 0.000000 
0.475000 1.000000 0.000000 
0.450000 1.000000 0.000000 
0.450000 0.500000 0.000000 
0.500000 0.000000 0.000000 
0.525000 0.000000 0.000000 
0.550000 0.000000 0.000000 
0.550000 0.500000 0.000000 
0.550000 1.000000 0.000000 
0.525000 1.000000 0.000000 
0.500000 1.000000 0.000000 
0.500000 0.500000 0.000000 
0.550000 0.000000 0.000000 
0.575000 0.000000 0.000000 
0.600000 0.000000 0.000000 
0.600000 0.500000 0.000000 
0.600000 1.000000 0.000000 
0.575000 1.000000 0.000000 
0.550000 1.000000 0.000000 
0.550000 0.500000 0.000000 
0.600000 0.000000 0.000000 
0.625000 0.000000 0.000000 
0.650000 0.000000 0.000000 
0.650000 0.500000 0.000000 
0.650000 1.000000 0.000000 
0.625000 1.000000 0.000000 
0.600000 1.000000 0.000000 
0.600000 0.500000 0.000000 
0.650000 0.000000 0.000000 
0.675000 0.000000 0.000000 
0.700000 0.000000 0.000000 
0.700000 0.500000 0.000000 
0.700000 1.000000 0.000000 
0.675000 1.000000 0.000000 
0.650000 1.000000 0.000000 
0.650000 0.500000 0.000000 
0.700000 0.000000 0.000000 
0.725000 0.000000 0.000000 
0.750000 0.000000 0.000000 
0.750000 0.500000 0.000000 
0.750000 1.000000 0.000000 
0.725000 1.000000 0.000000 
0.700000 1.000000 0.000000 
0.700000 0.500000 0.000000 
0.750000 0.000000 0.000000 
0.775000 0.000000 0.000000 
0.800000 0.000000 0.000000 
0.800000 0.500000 0.000000 
0.800000 1.000000 0.000000 
0.775000 1.000000 0.000000 
0.750000 1.000000 0.000000 
0.750000 0.500000 0.000000 
0.800000 0.000000 0.000000 
0.825000 0.000000 0.000000 
0.850000 0.000000 0.000000 
0.850000 0.500000 0.000000 
0.850000 1.000000 0.000000 
0.825000 1.000000 0.000000 
0.800000 1.000000 0.000000 
0.800000 0.500000 0.000000 
0.850000 0.000000 0.000000 
0.875000 0.000000 0.000000 
0.900000 0.000000 0.000000 
0.900000 0.500000 0.000000 
0.900000 1.000000 0.000000 
0.875000 1.000000 0.000000 
0.850000 1.000000 0.000000 
0.850000 0.500000 0.000000 
0.900000 0.000000 0.000000 
0.925000 0.000000 0.000000 
0.950000 0.000000 0.000000 
0.950000 0.500000 0.000000 
0.950000 1.000000 0.000000 
0.925000 1.000000 0.000000 
0.900000 1.000000 0.000000 
0.900000 0.500000 0.000000 
0.950000 0.000000 0.000000 
0.975000 0.000000 0.000000 
1.000000 0.000000 0.000000 
1.000000 0.500000 0.000000 
1.000000 1.000000 0.000000 
0.975000 1.000000 0.000000 
0.950000 1.000000 0.000000 
0.950000 0.500000 0.000000 
CELLS 20 180 
 8 0 1 2 3 4 5 6 7  
 8 8 9 10 11 12 13 14 15  
 8 16 17 18 19 20 21 22 23  
 8 24 25 26 27 28 29 30 31  
 8 32 33 34 35 36 37 38 39  
 8 40 41 42 43 44 45 46 47  
 8 48 49 50 51 52 53 54 55  
 8 56 57 58 59 60 61 62 63  
 8 64 65 66 67 68 69 70 71  
 8 72 73 74 75 76 77 78 79  
 8 80 81 82 83 84 85 86 87  
 8 88 89 90 91 92 93 94 95  
 8 96 97 98 99 100 101 102 103  
 8 104 105 106 107 108 109 110 111  
 8 112 113 114 115 116 117 118 119  
 8 120 121 122 123 124 125 126 127  
 8 128 129 130 131 132 133 134 135  
 8 136 137 138 139 140 141 142 143  
 8 144 145 146 147 148 149 150 151  
 8 152 153 154 155 156 157 158 159  
 
CELL_TYPES 20
7
7
7
7
7
7
7
7
7
7
7
7
7
7
7
7
7
7
7
7
CELL_DATA 20
FIELD FieldData 1
material 1 20 int
1
1
1
1
1
1
1
1
1
1
1
1
1
1
1
1
1
1
1
1
POINT_DATA 160 SCALARS flux_g1 double 
LOOKUP_TABLE   default 
4.30892155e-02
-1.94403661e-02
-1.90347920e-03
5.62152463e-02
-1.90347920e-03
-1.94403661e-02
4.30892155e-02
2.88660155e-02
1.01923753e-03
1.08762813e-03
2.82933578e-03
3.07790569e-02
2.82933578e-03
1.08762813e-03
1.01923753e-03
3.64600891e-02
2.94212551e-03
3.67806974e-03
4.46847976e-03
2.49592319e-02
4.46847976e-03
3.67806974e-03
2.94212551e-03
2.92660851e-02
4.56570069e-03
5.06064656e-03
5.54821364e-03
2.06955089e-02
5.54821364e-03
5.06064656e-03
4.56570069e-03
2.40538823e-02
5.61937515e-03
5.90265040e-03
6.17829289e-03
1.73812123e-02
6.17829289e-03
5.90265040e-03
5.61937515e-03
2.00337403e-02
6.23092110e-03
6.35624697e-03
6.47580224e-03
1.47613312e-02
6.47580224e-03
6.35624697e-03
6.23092110e-03
1.68920220e-02
6.51473131e-03
6.52315712e-03
6.52730789e-03
1.26547277e-02
6.52730789e-03
6.52315712e-03
6.51473131e-03
1.43994825e-02
6.55610690e-03
6.47807707e-03
6.39688550e-03
1.09276934e-02
6.39688550e-03
6.47807707e-03
6.55610690e-03
1.23870391e-02
6.41819359e-03
6.27623620e-03
6.13194120e-03
9.48132493e-03
6.13194120e-03
6.27623620e-03
6.41819359e-03
1.07296334e-02
6.14771097e-03
5.95849636e-03
5.76755409e-03
8.24243948e-03
5.76755409e-03
5.95849636e-03
6.14771097e-03
9.33474388e-03
5.77923064e-03
5.55509866e-03
5.32969066e-03
7.15686735e-03
5.32969066e-03
5.55509866e-03
5.77923064e-03
8.13390518e-03
5.33834399e-03
5.08843479e-03
4.83758425e-03
6.18448800e-03
4.83758425e-03
5.08843479e-03
5.33834399e-03
7.07643407e-03
4.84400733e-03
4.57509889e-03
4.30549755e-03
5.29555349e-03
4.30549755e-03
4.57509889e-03
4.84400733e-03
6.12478510e-03
4.31027896e-03
4.02740823e-03
3.74402955e-03
4.46796251e-03
3.74402955e-03
4.02740823e-03
4.31027896e-03
5.25110999e-03
3.74760745e-03
3.45453193e-03
3.16108684e-03
3.68523505e-03
3.16108684e-03
3.45453193e-03
3.74760745e-03
4.43470577e-03
3.16378908e-03
2.86333120e-03
2.56260802e-03
2.93500222e-03
2.56260802e-03
2.86333120e-03
3.16378908e-03
3.66011751e-03
2.56468226e-03
2.25898899e-03
1.95310689e-03
2.20787184e-03
1.95310689e-03
2.25898899e-03
2.56468226e-03
2.91572174e-03
1.95474400e-03
1.64549909e-03
1.33606355e-03
1.49655654e-03
1.33606355e-03
1.64549909e-03
1.95474400e-03
2.19265343e-03
1.33740501e-03
1.02630122e-03
7.14062979e-04
7.94791302e-04
7.14062979e-04
1.02630122e-03
1.33740501e-03
1.48389034e-03
7.16048546e-04
4.08136326e-04
7.62003736e-05
9.92186069e-05
7.62003736e-05
4.08136326e-04
7.16048546e-04
7.80396884e-04
 
