# vtk DataFile Version 3.0 
Date: 4/28/2016   Time: 9:11
ASCII 
DATASET UNSTRUCTURED_GRID 
 
POINTS 3200 float 
0.000000 0.000000 0.000000 
0.025000 0.000000 0.000000 
0.050000 0.000000 0.000000 
0.050000 0.025000 0.000000 
0.050000 0.050000 0.000000 
0.025000 0.050000 0.000000 
0.000000 0.050000 0.000000 
0.000000 0.025000 0.000000 
0.050000 0.000000 0.000000 
0.075000 0.000000 0.000000 
0.100000 0.000000 0.000000 
0.100000 0.025000 0.000000 
0.100000 0.050000 0.000000 
0.075000 0.050000 0.000000 
0.050000 0.050000 0.000000 
0.050000 0.025000 0.000000 
0.100000 0.000000 0.000000 
0.125000 0.000000 0.000000 
0.150000 0.000000 0.000000 
0.150000 0.025000 0.000000 
0.150000 0.050000 0.000000 
0.125000 0.050000 0.000000 
0.100000 0.050000 0.000000 
0.100000 0.025000 0.000000 
0.150000 0.000000 0.000000 
0.175000 0.000000 0.000000 
0.200000 0.000000 0.000000 
0.200000 0.025000 0.000000 
0.200000 0.050000 0.000000 
0.175000 0.050000 0.000000 
0.150000 0.050000 0.000000 
0.150000 0.025000 0.000000 
0.200000 0.000000 0.000000 
0.225000 0.000000 0.000000 
0.250000 0.000000 0.000000 
0.250000 0.025000 0.000000 
0.250000 0.050000 0.000000 
0.225000 0.050000 0.000000 
0.200000 0.050000 0.000000 
0.200000 0.025000 0.000000 
0.250000 0.000000 0.000000 
0.275000 0.000000 0.000000 
0.300000 0.000000 0.000000 
0.300000 0.025000 0.000000 
0.300000 0.050000 0.000000 
0.275000 0.050000 0.000000 
0.250000 0.050000 0.000000 
0.250000 0.025000 0.000000 
0.300000 0.000000 0.000000 
0.325000 0.000000 0.000000 
0.350000 0.000000 0.000000 
0.350000 0.025000 0.000000 
0.350000 0.050000 0.000000 
0.325000 0.050000 0.000000 
0.300000 0.050000 0.000000 
0.300000 0.025000 0.000000 
0.350000 0.000000 0.000000 
0.375000 0.000000 0.000000 
0.400000 0.000000 0.000000 
0.400000 0.025000 0.000000 
0.400000 0.050000 0.000000 
0.375000 0.050000 0.000000 
0.350000 0.050000 0.000000 
0.350000 0.025000 0.000000 
0.400000 0.000000 0.000000 
0.425000 0.000000 0.000000 
0.450000 0.000000 0.000000 
0.450000 0.025000 0.000000 
0.450000 0.050000 0.000000 
0.425000 0.050000 0.000000 
0.400000 0.050000 0.000000 
0.400000 0.025000 0.000000 
0.450000 0.000000 0.000000 
0.475000 0.000000 0.000000 
0.500000 0.000000 0.000000 
0.500000 0.025000 0.000000 
0.500000 0.050000 0.000000 
0.475000 0.050000 0.000000 
0.450000 0.050000 0.000000 
0.450000 0.025000 0.000000 
0.500000 0.000000 0.000000 
0.525000 0.000000 0.000000 
0.550000 0.000000 0.000000 
0.550000 0.025000 0.000000 
0.550000 0.050000 0.000000 
0.525000 0.050000 0.000000 
0.500000 0.050000 0.000000 
0.500000 0.025000 0.000000 
0.550000 0.000000 0.000000 
0.575000 0.000000 0.000000 
0.600000 0.000000 0.000000 
0.600000 0.025000 0.000000 
0.600000 0.050000 0.000000 
0.575000 0.050000 0.000000 
0.550000 0.050000 0.000000 
0.550000 0.025000 0.000000 
0.600000 0.000000 0.000000 
0.625000 0.000000 0.000000 
0.650000 0.000000 0.000000 
0.650000 0.025000 0.000000 
0.650000 0.050000 0.000000 
0.625000 0.050000 0.000000 
0.600000 0.050000 0.000000 
0.600000 0.025000 0.000000 
0.650000 0.000000 0.000000 
0.675000 0.000000 0.000000 
0.700000 0.000000 0.000000 
0.700000 0.025000 0.000000 
0.700000 0.050000 0.000000 
0.675000 0.050000 0.000000 
0.650000 0.050000 0.000000 
0.650000 0.025000 0.000000 
0.700000 0.000000 0.000000 
0.725000 0.000000 0.000000 
0.750000 0.000000 0.000000 
0.750000 0.025000 0.000000 
0.750000 0.050000 0.000000 
0.725000 0.050000 0.000000 
0.700000 0.050000 0.000000 
0.700000 0.025000 0.000000 
0.750000 0.000000 0.000000 
0.775000 0.000000 0.000000 
0.800000 0.000000 0.000000 
0.800000 0.025000 0.000000 
0.800000 0.050000 0.000000 
0.775000 0.050000 0.000000 
0.750000 0.050000 0.000000 
0.750000 0.025000 0.000000 
0.800000 0.000000 0.000000 
0.825000 0.000000 0.000000 
0.850000 0.000000 0.000000 
0.850000 0.025000 0.000000 
0.850000 0.050000 0.000000 
0.825000 0.050000 0.000000 
0.800000 0.050000 0.000000 
0.800000 0.025000 0.000000 
0.850000 0.000000 0.000000 
0.875000 0.000000 0.000000 
0.900000 0.000000 0.000000 
0.900000 0.025000 0.000000 
0.900000 0.050000 0.000000 
0.875000 0.050000 0.000000 
0.850000 0.050000 0.000000 
0.850000 0.025000 0.000000 
0.900000 0.000000 0.000000 
0.925000 0.000000 0.000000 
0.950000 0.000000 0.000000 
0.950000 0.025000 0.000000 
0.950000 0.050000 0.000000 
0.925000 0.050000 0.000000 
0.900000 0.050000 0.000000 
0.900000 0.025000 0.000000 
0.950000 0.000000 0.000000 
0.975000 0.000000 0.000000 
1.000000 0.000000 0.000000 
1.000000 0.025000 0.000000 
1.000000 0.050000 0.000000 
0.975000 0.050000 0.000000 
0.950000 0.050000 0.000000 
0.950000 0.025000 0.000000 
0.000000 0.050000 0.000000 
0.025000 0.050000 0.000000 
0.050000 0.050000 0.000000 
0.050000 0.075000 0.000000 
0.050000 0.100000 0.000000 
0.025000 0.100000 0.000000 
0.000000 0.100000 0.000000 
0.000000 0.075000 0.000000 
0.050000 0.050000 0.000000 
0.075000 0.050000 0.000000 
0.100000 0.050000 0.000000 
0.100000 0.075000 0.000000 
0.100000 0.100000 0.000000 
0.075000 0.100000 0.000000 
0.050000 0.100000 0.000000 
0.050000 0.075000 0.000000 
0.100000 0.050000 0.000000 
0.125000 0.050000 0.000000 
0.150000 0.050000 0.000000 
0.150000 0.075000 0.000000 
0.150000 0.100000 0.000000 
0.125000 0.100000 0.000000 
0.100000 0.100000 0.000000 
0.100000 0.075000 0.000000 
0.150000 0.050000 0.000000 
0.175000 0.050000 0.000000 
0.200000 0.050000 0.000000 
0.200000 0.075000 0.000000 
0.200000 0.100000 0.000000 
0.175000 0.100000 0.000000 
0.150000 0.100000 0.000000 
0.150000 0.075000 0.000000 
0.200000 0.050000 0.000000 
0.225000 0.050000 0.000000 
0.250000 0.050000 0.000000 
0.250000 0.075000 0.000000 
0.250000 0.100000 0.000000 
0.225000 0.100000 0.000000 
0.200000 0.100000 0.000000 
0.200000 0.075000 0.000000 
0.250000 0.050000 0.000000 
0.275000 0.050000 0.000000 
0.300000 0.050000 0.000000 
0.300000 0.075000 0.000000 
0.300000 0.100000 0.000000 
0.275000 0.100000 0.000000 
0.250000 0.100000 0.000000 
0.250000 0.075000 0.000000 
0.300000 0.050000 0.000000 
0.325000 0.050000 0.000000 
0.350000 0.050000 0.000000 
0.350000 0.075000 0.000000 
0.350000 0.100000 0.000000 
0.325000 0.100000 0.000000 
0.300000 0.100000 0.000000 
0.300000 0.075000 0.000000 
0.350000 0.050000 0.000000 
0.375000 0.050000 0.000000 
0.400000 0.050000 0.000000 
0.400000 0.075000 0.000000 
0.400000 0.100000 0.000000 
0.375000 0.100000 0.000000 
0.350000 0.100000 0.000000 
0.350000 0.075000 0.000000 
0.400000 0.050000 0.000000 
0.425000 0.050000 0.000000 
0.450000 0.050000 0.000000 
0.450000 0.075000 0.000000 
0.450000 0.100000 0.000000 
0.425000 0.100000 0.000000 
0.400000 0.100000 0.000000 
0.400000 0.075000 0.000000 
0.450000 0.050000 0.000000 
0.475000 0.050000 0.000000 
0.500000 0.050000 0.000000 
0.500000 0.075000 0.000000 
0.500000 0.100000 0.000000 
0.475000 0.100000 0.000000 
0.450000 0.100000 0.000000 
0.450000 0.075000 0.000000 
0.500000 0.050000 0.000000 
0.525000 0.050000 0.000000 
0.550000 0.050000 0.000000 
0.550000 0.075000 0.000000 
0.550000 0.100000 0.000000 
0.525000 0.100000 0.000000 
0.500000 0.100000 0.000000 
0.500000 0.075000 0.000000 
0.550000 0.050000 0.000000 
0.575000 0.050000 0.000000 
0.600000 0.050000 0.000000 
0.600000 0.075000 0.000000 
0.600000 0.100000 0.000000 
0.575000 0.100000 0.000000 
0.550000 0.100000 0.000000 
0.550000 0.075000 0.000000 
0.600000 0.050000 0.000000 
0.625000 0.050000 0.000000 
0.650000 0.050000 0.000000 
0.650000 0.075000 0.000000 
0.650000 0.100000 0.000000 
0.625000 0.100000 0.000000 
0.600000 0.100000 0.000000 
0.600000 0.075000 0.000000 
0.650000 0.050000 0.000000 
0.675000 0.050000 0.000000 
0.700000 0.050000 0.000000 
0.700000 0.075000 0.000000 
0.700000 0.100000 0.000000 
0.675000 0.100000 0.000000 
0.650000 0.100000 0.000000 
0.650000 0.075000 0.000000 
0.700000 0.050000 0.000000 
0.725000 0.050000 0.000000 
0.750000 0.050000 0.000000 
0.750000 0.075000 0.000000 
0.750000 0.100000 0.000000 
0.725000 0.100000 0.000000 
0.700000 0.100000 0.000000 
0.700000 0.075000 0.000000 
0.750000 0.050000 0.000000 
0.775000 0.050000 0.000000 
0.800000 0.050000 0.000000 
0.800000 0.075000 0.000000 
0.800000 0.100000 0.000000 
0.775000 0.100000 0.000000 
0.750000 0.100000 0.000000 
0.750000 0.075000 0.000000 
0.800000 0.050000 0.000000 
0.825000 0.050000 0.000000 
0.850000 0.050000 0.000000 
0.850000 0.075000 0.000000 
0.850000 0.100000 0.000000 
0.825000 0.100000 0.000000 
0.800000 0.100000 0.000000 
0.800000 0.075000 0.000000 
0.850000 0.050000 0.000000 
0.875000 0.050000 0.000000 
0.900000 0.050000 0.000000 
0.900000 0.075000 0.000000 
0.900000 0.100000 0.000000 
0.875000 0.100000 0.000000 
0.850000 0.100000 0.000000 
0.850000 0.075000 0.000000 
0.900000 0.050000 0.000000 
0.925000 0.050000 0.000000 
0.950000 0.050000 0.000000 
0.950000 0.075000 0.000000 
0.950000 0.100000 0.000000 
0.925000 0.100000 0.000000 
0.900000 0.100000 0.000000 
0.900000 0.075000 0.000000 
0.950000 0.050000 0.000000 
0.975000 0.050000 0.000000 
1.000000 0.050000 0.000000 
1.000000 0.075000 0.000000 
1.000000 0.100000 0.000000 
0.975000 0.100000 0.000000 
0.950000 0.100000 0.000000 
0.950000 0.075000 0.000000 
0.000000 0.100000 0.000000 
0.025000 0.100000 0.000000 
0.050000 0.100000 0.000000 
0.050000 0.125000 0.000000 
0.050000 0.150000 0.000000 
0.025000 0.150000 0.000000 
0.000000 0.150000 0.000000 
0.000000 0.125000 0.000000 
0.050000 0.100000 0.000000 
0.075000 0.100000 0.000000 
0.100000 0.100000 0.000000 
0.100000 0.125000 0.000000 
0.100000 0.150000 0.000000 
0.075000 0.150000 0.000000 
0.050000 0.150000 0.000000 
0.050000 0.125000 0.000000 
0.100000 0.100000 0.000000 
0.125000 0.100000 0.000000 
0.150000 0.100000 0.000000 
0.150000 0.125000 0.000000 
0.150000 0.150000 0.000000 
0.125000 0.150000 0.000000 
0.100000 0.150000 0.000000 
0.100000 0.125000 0.000000 
0.150000 0.100000 0.000000 
0.175000 0.100000 0.000000 
0.200000 0.100000 0.000000 
0.200000 0.125000 0.000000 
0.200000 0.150000 0.000000 
0.175000 0.150000 0.000000 
0.150000 0.150000 0.000000 
0.150000 0.125000 0.000000 
0.200000 0.100000 0.000000 
[...]
CELL_DATA 400
FIELD FieldData 1
material 1 400 int
1
1
1
1
1
1
1
1
1
1
1
1
1
1
1
1
1
1
1
1
1
1
1
1
1
1
1
1
1
1
1
1
1
1
1
1
1
1
1
1
1
1
1
1
1
1
1
1
1
1
1
1
1
1
1
1
1
1
1
1
1
1
1
1
1
1
1
1
1
1
1
1
1
1
1
1
1
1
1
1
1
1
1
1
1
1
1
1
1
1
1
1
1
1
1
1
1
1
1
1
1
1
1
1
1
1
1
1
1
1
1
1
1
1
1
1
1
1
1
1
1
1
1
1
1
1
1
1
1
1
1
1
1
1
1
1
1
1
1
1
1
1
1
1
1
1
1
1
1
1
1
1
1
1
1
1
1
1
1
1
1
1
1
1
1
1
1
1
1
1
1
1
1
1
1
1
1
1
1
1
1
1
1
1
1
1
1
1
1
1
1
1
1
1
1
1
1
1
1
1
1
1
1
1
1
1
1
1
1
1
1
1
1
1
1
1
1
1
1
1
1
1
1
1
1
1
1
1
1
1
1
1
1
1
1
1
1
1
1
1
1
1
1
1
1
1
1
1
1
1
1
1
1
1
1
1
1
1
1
1
1
1
1
1
1
1
1
1
1
1
1
1
1
1
1
1
1
1
1
1
1
1
1
1
1
1
1
1
1
1
1
1
1
1
1
1
1
1
1
1
1
1
1
1
1
1
1
1
1
1
1
1
1
1
1
1
1
1
1
1
1
1
1
1
1
1
1
1
1
1
1
1
1
1
1
1
1
1
1
1
1
1
1
1
1
1
1
1
1
1
1
1
1
1
1
1
1
1
1
1
1
1
1
1
1
1
1
1
1
1
1
1
1
1
1
1
1
1
1
1
1
1
1
1
1
1
1
1
1
1
1
1
1
1
1
1
1
1
1
1
POINT_DATA 3200 SCALARS flux_g1 double 
LOOKUP_TABLE   default 
-3.32760028e-05
2.67983323e-04
1.57796101e-04
7.70542806e-03
1.24755537e-02
7.70542806e-03
1.57796101e-04
2.67983323e-04
1.72536197e-04
3.15423707e-04
2.95489894e-04
1.21934583e-02
2.08785399e-02
1.73534142e-02
1.24880148e-02
7.70825286e-03
2.97324872e-04
3.85239462e-04
3.80709699e-04
1.54169606e-02
2.70409407e-02
2.43722217e-02
2.08787452e-02
1.21996206e-02
3.80972945e-04
4.46334858e-04
4.42639598e-04
1.78365462e-02
3.17119200e-02
2.96640454e-02
2.70404998e-02
1.54206426e-02
4.42609027e-04
4.95124197e-04
4.89220675e-04
1.96756814e-02
3.52788135e-02
3.37111360e-02
3.17115415e-02
1.78388617e-02
4.89144119e-04
5.32973714e-04
5.24185790e-04
2.10618417e-02
3.79740383e-02
3.67968465e-02
3.52785482e-02
1.96771959e-02
5.24113442e-04
5.61481680e-04
5.49689242e-04
2.20749525e-02
3.99468444e-02
3.91010534e-02
3.79738581e-02
2.10628545e-02
5.49632939e-04
5.81882142e-04
5.67082568e-04
2.27667304e-02
4.12950978e-02
4.07420948e-02
3.99467258e-02
2.20756208e-02
5.67044896e-04
5.95035713e-04
5.77206705e-04
2.31697982e-02
4.20809977e-02
4.17973111e-02
4.12950256e-02
2.27671393e-02
5.77187935e-04
6.01482473e-04
5.80525644e-04
2.33022770e-02
4.23392325e-02
4.23137559e-02
4.20809635e-02
2.31699929e-02
5.80525644e-04
6.01482473e-04
5.77187935e-04
2.31699929e-02
4.20809635e-02
4.23137559e-02
4.23392325e-02
2.33022770e-02
5.77206705e-04
5.95035713e-04
5.67044896e-04
2.27671393e-02
4.12950256e-02
4.17973111e-02
4.20809977e-02
2.31697982e-02
5.67082568e-04
5.81882142e-04
5.49632939e-04
2.20756208e-02
3.99467258e-02
4.07420948e-02
4.12950978e-02
2.27667304e-02
5.49689242e-04
5.61481680e-04
5.24113442e-04
2.10628545e-02
3.79738581e-02
3.91010534e-02
3.99468444e-02
2.20749525e-02
5.24185790e-04
5.32973714e-04
4.89144119e-04
1.96771959e-02
3.52785482e-02
3.67968465e-02
3.79740383e-02
2.10618417e-02
4.89220675e-04
4.95124197e-04
4.42609027e-04
1.78388617e-02
3.17115415e-02
3.37111360e-02
3.52788135e-02
1.96756814e-02
4.42639598e-04
4.46334858e-04
3.80972945e-04
1.54206426e-02
2.70404998e-02
2.96640454e-02
3.17119200e-02
1.78365462e-02
3.80709699e-04
3.85239462e-04
2.97324872e-04
1.21996206e-02
2.08787452e-02
2.43722217e-02
2.70409407e-02
1.54169606e-02
2.95489894e-04
3.15423707e-04
1.72536197e-04
7.70825286e-03
1.24880148e-02
1.73534142e-02
2.08785399e-02
1.21934583e-02
1.57796101e-04
2.67983323e-04
-3.32760028e-05
2.67983323e-04
1.57796101e-04
7.70542806e-03
1.24755537e-02
7.70542806e-03
1.72536197e-04
7.70825286e-03
1.24880148e-02
1.73534142e-02
2.08785399e-02
1.21934583e-02
2.95489894e-04
3.15423707e-04
1.24842633e-02
1.73923542e-02
2.08738719e-02
2.95981624e-02
3.61679359e-02
2.95981624e-02
2.08738719e-02
1.73923542e-02
2.08734022e-02
2.44059457e-02
2.70368540e-02
3.86963121e-02
4.77976784e-02
4.27454770e-02
3.61669546e-02
2.96135253e-02
2.70364411e-02
2.96925739e-02
3.17087700e-02
4.56220417e-02
5.67480236e-02
5.28442991e-02
4.77968241e-02
3.87050766e-02
3.17084029e-02
3.37364097e-02
3.52762823e-02
5.09206714e-02
6.36366655e-02
6.06425805e-02
5.67473455e-02
4.56275351e-02
3.52759918e-02
3.68201133e-02
3.79718929e-02
5.49283321e-02
6.88652100e-02
6.66210367e-02
6.36361608e-02
5.09242871e-02
3.79716772e-02
3.91230560e-02
3.99449416e-02
5.78634451e-02
7.27026396e-02
7.11000700e-02
6.88648484e-02
5.49307576e-02
3.99447905e-02
4.07633032e-02
4.12933428e-02
5.98700655e-02
7.53295222e-02
7.42964865e-02
7.27023916e-02
5.78650468e-02
4.12932471e-02
4.18180506e-02
4.20793210e-02
6.10400361e-02
7.68621912e-02
7.63543552e-02
7.53293673e-02
5.98710453e-02
4.20792746e-02
4.23342769e-02
4.23375766e-02
6.14246688e-02
7.73660203e-02
7.73621835e-02
7.68621167e-02
6.10405022e-02
4.23375766e-02
4.23342769e-02
4.20792746e-02
6.10405022e-02
7.68621167e-02
7.73621835e-02
7.73660203e-02
6.14246688e-02
4.20793210e-02
4.18180506e-02
4.12932471e-02
5.98710453e-02
7.53293673e-02
7.63543552e-02
7.68621912e-02
6.10400361e-02
4.12933428e-02
4.07633032e-02
3.99447905e-02
5.78650468e-02
7.27023916e-02
7.42964865e-02
7.53295222e-02
5.98700655e-02
3.99449416e-02
3.91230560e-02
3.79716772e-02
5.49307576e-02
6.88648484e-02
7.11000700e-02
7.27026396e-02
5.78634451e-02
3.79718929e-02
3.68201133e-02
3.52759918e-02
5.09242871e-02
6.36361608e-02
6.66210367e-02
6.88652100e-02
5.49283321e-02
3.52762823e-02
3.37364097e-02
3.17084029e-02
4.56275351e-02
5.67473455e-02
6.06425805e-02
6.36366655e-02
5.09206714e-02
3.17087700e-02
2.96925739e-02
2.70364411e-02
3.87050766e-02
4.77968241e-02
5.28442991e-02
5.67480236e-02
4.56220417e-02
2.70368540e-02
2.44059457e-02
2.08734022e-02
2.96135253e-02
3.61669546e-02
4.27454770e-02
4.77976784e-02
3.86963121e-02
2.08738719e-02
1.73923542e-02
1.24842633e-02
1.73923542e-02
2.08738719e-02
2.95981624e-02
3.61679359e-02
2.95981624e-02
1.24880148e-02
7.70825286e-03
1.72536197e-04
3.15423707e-04
2.95489894e-04
1.21934583e-02
2.08785399e-02
1.73534142e-02
2.97324872e-04
1.21996206e-02
2.08787452e-02
2.43722217e-02
2.70409407e-02
1.54169606e-02
3.80709699e-04
3.85239462e-04
2.08734022e-02
2.96135253e-02
3.61669546e-02
4.27454770e-02
4.77976784e-02
3.86963121e-02
2.70368540e-02
2.44059457e-02
3.61649873e-02
4.27629826e-02
4.77957807e-02
5.69019935e-02
6.40349650e-02
5.69019935e-02
4.77957807e-02
4.27629826e-02
4.77946372e-02
5.28603317e-02
5.67461426e-02
6.78757108e-02
7.67384133e-02
7.11642381e-02
6.40336780e-02
5.69133774e-02
5.67454252e-02
6.06565410e-02
6.36350459e-02
7.63544218e-02
8.66114018e-02
8.23060515e-02
7.67375211e-02
6.78832882e-02
6.36345535e-02
6.66332362e-02
6.88638405e-02
8.28043811e-02
9.41501863e-02
9.09089204e-02
8.66107558e-02
7.63596012e-02
6.88634972e-02
7.11109443e-02
7.27014614e-02
8.75447758e-02
9.97041382e-02
9.73832642e-02
9.41497228e-02
8.28079395e-02
7.27012281e-02
7.43064319e-02
7.53284751e-02
9.07925732e-02
1.03515058e-01
1.02016875e-01
9.97038183e-02
8.75471614e-02
7.53283297e-02
7.63637137e-02
7.68612206e-02
9.26885761e-02
1.05741654e-01
1.05005288e-01
1.03514857e-01
9.07940461e-02
7.68611507e-02
7.73712584e-02
7.73650761e-02
9.33122378e-02
1.06474071e-01
1.06470251e-01
1.05741557e-01
9.26892802e-02
7.73650761e-02
7.73712584e-02
7.68611507e-02
9.26892802e-02
1.05741557e-01
1.06470251e-01
1.06474071e-01
9.33122378e-02
7.68612206e-02
7.63637137e-02
7.53283297e-02
9.07940461e-02
1.03514857e-01
1.05005288e-01
1.05741654e-01
9.26885761e-02
7.53284751e-02
7.43064319e-02
7.27012281e-02
8.75471614e-02
9.97038183e-02
1.02016875e-01
1.03515058e-01
9.07925732e-02
7.27014614e-02
7.11109443e-02
6.88634972e-02
8.28079395e-02
9.41497228e-02
9.73832642e-02
9.97041382e-02
8.75447758e-02
6.88638405e-02
6.66332362e-02
6.36345535e-02
7.63596012e-02
8.66107558e-02
9.09089204e-02
9.41501863e-02
8.28043811e-02
6.36350459e-02
6.06565410e-02
5.67454252e-02
6.78832882e-02
7.67375211e-02
8.23060515e-02
8.66114018e-02
7.63544218e-02
5.67461426e-02
5.28603317e-02
4.77946372e-02
5.69133774e-02
6.40336780e-02
7.11642381e-02
7.67384133e-02
6.78757108e-02
4.77957807e-02
4.27629826e-02
3.61649873e-02
4.27629826e-02
4.77957807e-02
5.69019935e-02
6.40349650e-02
5.69019935e-02
3.61669546e-02
2.96135253e-02
2.08734022e-02
2.44059457e-02
2.70368540e-02
3.86963121e-02
4.77976784e-02
4.27454770e-02
2.08787452e-02
1.21996206e-02
2.97324872e-04
3.85239462e-04
3.80709699e-04
1.54169606e-02
2.70409407e-02
2.43722217e-02
3.80972945e-04
1.54206426e-02
2.70404998e-02
2.96640454e-02
3.17119200e-02
1.78365462e-02
4.42639598e-04
4.46334858e-04
2.70364411e-02
3.87050766e-02
4.77968241e-02
5.28442991e-02
5.67480236e-02
4.56220417e-02
3.17087700e-02
2.96925739e-02
4.77946372e-02
5.69133774e-02
6.40336780e-02
7.11642381e-02
7.67384133e-02
6.78757108e-02
5.67461426e-02
5.28603317e-02
6.40321710e-02
7.11760455e-02
7.67369708e-02
8.55984995e-02
9.26000576e-02
8.55984995e-02
7.67369708e-02
7.11760455e-02
7.67359746e-02
8.23172548e-02
8.66099946e-02
9.68664276e-02
1.05044399e-01
9.95973662e-02
9.25990232e-02
8.56070139e-02
8.66093069e-02
9.09192510e-02
9.41488806e-02
1.05494745e-01
1.14606509e-01
1.10486097e-01
1.05043642e-01
9.68725495e-02
9.41484012e-02
9.73927828e-02
9.97029357e-02
1.11862996e-01
1.21680463e-01
1.18721071e-01
1.14605960e-01
1.05499092e-01
9.97026098e-02
1.02025758e-01
1.03513936e-01
1.16237798e-01
1.26547429e-01
1.24633843e-01
1.21680080e-01
1.11865974e-01
1.03513733e-01
1.05013744e-01
1.05740582e-01
1.18795772e-01
1.29395624e-01
1.28455020e-01
1.26547187e-01
1.16239662e-01
1.05740484e-01
1.06478494e-01
1.06473015e-01
1.19637785e-01
1.30333220e-01
1.30330324e-01
1.29395507e-01
1.18796670e-01
1.06473015e-01
1.06478494e-01
1.05740484e-01
1.18796670e-01
1.29395507e-01
1.30330324e-01
1.30333220e-01
1.19637785e-01
1.05740582e-01
1.05013744e-01
1.03513733e-01
1.16239662e-01
1.26547187e-01
1.28455020e-01
1.29395624e-01
1.18795772e-01
1.03513936e-01
1.02025758e-01
9.97026098e-02
1.11865974e-01
1.21680080e-01
1.24633843e-01
1.26547429e-01
1.16237798e-01
9.97029357e-02
9.73927828e-02
9.41484012e-02
1.05499092e-01
1.14605960e-01
1.18721071e-01
1.21680463e-01
1.11862996e-01
9.41488806e-02
9.09192510e-02
8.66093069e-02
9.68725495e-02
1.05043642e-01
1.10486097e-01
1.14606509e-01
1.05494745e-01
8.66099946e-02
8.23172548e-02
7.67359746e-02
8.56070139e-02
9.25990232e-02
9.95973662e-02
1.05044399e-01
9.68664276e-02
7.67369708e-02
7.11760455e-02
6.40321710e-02
7.11760455e-02
7.67369708e-02
8.55984995e-02
9.26000576e-02
8.55984995e-02
6.40336780e-02
5.69133774e-02
4.77946372e-02
5.28603317e-02
5.67461426e-02
6.78757108e-02
7.67384133e-02
7.11642381e-02
4.77968241e-02
3.87050766e-02
2.70364411e-02
2.96925739e-02
3.17087700e-02
4.56220417e-02
5.67480236e-02
5.28442991e-02
2.70404998e-02
1.54206426e-02
3.80972945e-04
4.46334858e-04
4.42639598e-04
1.78365462e-02
3.17119200e-02
2.96640454e-02
4.42609027e-04
1.78388617e-02
3.17115415e-02
3.37111360e-02
3.52788135e-02
1.96756814e-02
4.89220675e-04
4.95124197e-04
3.17084029e-02
4.56275351e-02
5.67473455e-02
6.06425805e-02
6.36366655e-02
5.09206714e-02
3.52762823e-02
3.37364097e-02
5.67454252e-02
6.78832882e-02
7.67375211e-02
8.23060515e-02
8.66114018e-02
7.63544218e-02
6.36350459e-02
6.06565410e-02
7.67359746e-02
8.56070139e-02
9.25990232e-02
9.95973662e-02
1.05044399e-01
9.68664276e-02
8.66099946e-02
8.23172548e-02
9.25979125e-02
9.96059947e-02
1.05043329e-01
1.13219527e-01
1.19623723e-01
1.13219527e-01
1.05043329e-01
9.96059947e-02
1.05042528e-01
1.10494442e-01
1.14605465e-01
1.23716555e-01
1.30891025e-01
1.26024322e-01
1.19622913e-01
1.13226034e-01
1.14604892e-01
1.18729013e-01
1.21679466e-01
1.31497225e-01
1.39259821e-01
1.35753680e-01
1.30890424e-01
1.23721333e-01
1.21679071e-01
1.24641411e-01
1.26546477e-01
1.36857326e-01
1.45033009e-01
1.42761706e-01
1.39259396e-01
1.31500573e-01
1.26546228e-01
1.28462314e-01
1.29394701e-01
1.39996717e-01
1.48417036e-01
1.47300006e-01
1.45032737e-01
1.36859452e-01
1.29394581e-01
1.30337475e-01
1.30332306e-01
1.41030922e-01
1.49531883e-01
1.49529807e-01
1.48416903e-01
1.39997750e-01
1.30332306e-01
1.30337475e-01
1.29394581e-01
1.39997750e-01
1.48416903e-01
1.49529807e-01
1.49531883e-01
1.41030922e-01
1.29394701e-01
1.28462314e-01
1.26546228e-01
1.36859452e-01
1.45032737e-01
1.47300006e-01
1.48417036e-01
1.39996717e-01
1.26546477e-01
1.24641411e-01
1.21679071e-01
1.31500573e-01
1.39259396e-01
1.42761706e-01
1.45033009e-01
1.36857326e-01
1.21679466e-01
1.18729013e-01
1.14604892e-01
1.23721333e-01
1.30890424e-01
1.35753680e-01
1.39259821e-01
1.31497225e-01
1.14605465e-01
1.10494442e-01
1.05042528e-01
1.13226034e-01
1.19622913e-01
1.26024322e-01
1.30891025e-01
1.23716555e-01
1.05043329e-01
9.96059947e-02
9.25979125e-02
9.96059947e-02
1.05043329e-01
1.13219527e-01
1.19623723e-01
1.13219527e-01
9.25990232e-02
8.56070139e-02
7.67359746e-02
8.23172548e-02
8.66099946e-02
9.68664276e-02
1.05044399e-01
9.95973662e-02
7.67375211e-02
6.78832882e-02
5.67454252e-02
6.06565410e-02
6.36350459e-02
7.63544218e-02
8.66114018e-02
8.23060515e-02
5.67473455e-02
4.56275351e-02
3.17084029e-02
3.37364097e-02
3.52762823e-02
5.09206714e-02
6.36366655e-02
6.06425805e-02
3.17115415e-02
1.78388617e-02
4.42609027e-04
4.95124197e-04
4.89220675e-04
1.96756814e-02
3.52788135e-02
3.37111360e-02
4.89144119e-04
1.96771959e-02
3.52785482e-02
3.67968465e-02
3.79740383e-02
2.10618417e-02
5.24185790e-04
5.32973714e-04
3.52759918e-02
5.09242871e-02
6.36361608e-02
6.66210367e-02
6.88652100e-02
5.49283321e-02
3.79718929e-02
3.68201133e-02
6.36345535e-02
7.63596012e-02
8.66107558e-02
9.09089204e-02
9.41501863e-02
8.28043811e-02
6.88638405e-02
6.66332362e-02
8.66093069e-02
9.68725495e-02
1.05043642e-01
1.10486097e-01
1.14606509e-01
1.05494745e-01
9.41488806e-02
9.09192510e-02
1.05042528e-01
1.13226034e-01
1.19622913e-01
1.26024322e-01
1.30891025e-01
1.23716555e-01
1.14605465e-01
1.10494442e-01
1.19622069e-01
1.26030864e-01
1.30890205e-01
1.38063301e-01
1.43537025e-01
1.38063301e-01
1.30890205e-01
1.26030864e-01
1.30889583e-01
1.35760088e-01
1.39259015e-01
1.47021452e-01
1.52962561e-01
1.49008240e-01
1.43536403e-01
1.38068247e-01
1.39258577e-01
1.42767934e-01
1.45032222e-01
1.53208873e-01
1.59480241e-01
1.56914204e-01
1.52962114e-01
1.47024991e-01
1.45031943e-01
1.47306082e-01
1.48416264e-01
1.56838662e-01
1.63306327e-01
1.62043552e-01
1.59479952e-01
1.53211152e-01
1.48416128e-01
1.49535799e-01
1.49531115e-01
1.58035313e-01
1.64567705e-01
1.64566416e-01
1.63306185e-01
1.56839778e-01
1.49531115e-01
1.49535799e-01
1.48416128e-01
1.56839778e-01
1.63306185e-01
1.64566416e-01
1.64567705e-01
1.58035313e-01
1.48416264e-01
1.47306082e-01
1.45031943e-01
1.53211152e-01
1.59479952e-01
1.62043552e-01
1.63306327e-01
1.56838662e-01
1.45032222e-01
1.42767934e-01
1.39258577e-01
1.47024991e-01
1.52962114e-01
1.56914204e-01
1.59480241e-01
1.53208873e-01
1.39259015e-01
1.35760088e-01
1.30889583e-01
1.38068247e-01
1.43536403e-01
1.49008240e-01
1.52962561e-01
1.47021452e-01
1.30890205e-01
1.26030864e-01
1.19622069e-01
1.26030864e-01
1.30890205e-01
1.38063301e-01
1.43537025e-01
1.38063301e-01
1.19622913e-01
1.13226034e-01
1.05042528e-01
1.10494442e-01
1.14605465e-01
1.23716555e-01
1.30891025e-01
1.26024322e-01
1.05043642e-01
9.68725495e-02
8.66093069e-02
9.09192510e-02
9.41488806e-02
1.05494745e-01
1.14606509e-01
1.10486097e-01
8.66107558e-02
7.63596012e-02
6.36345535e-02
6.66332362e-02
6.88638405e-02
8.28043811e-02
9.41501863e-02
9.09089204e-02
6.36361608e-02
5.09242871e-02
3.52759918e-02
3.68201133e-02
3.79718929e-02
5.49283321e-02
6.88652100e-02
6.66210367e-02
3.52785482e-02
1.96771959e-02
4.89144119e-04
5.32973714e-04
5.24185790e-04
2.10618417e-02
3.79740383e-02
3.67968465e-02
5.24113442e-04
2.10628545e-02
3.79738581e-02
3.91010534e-02
3.99468444e-02
2.20749525e-02
5.49689242e-04
5.61481680e-04
3.79716772e-02
5.49307576e-02
6.88648484e-02
7.11000700e-02
7.27026396e-02
5.78634451e-02
3.99449416e-02
3.91230560e-02
6.88634972e-02
8.28079395e-02
9.41497228e-02
9.73832642e-02
9.97041382e-02
8.75447758e-02
7.27014614e-02
7.11109443e-02
9.41484012e-02
1.05499092e-01
1.14605960e-01
1.18721071e-01
1.21680463e-01
1.11862996e-01
9.97029357e-02
9.73927828e-02
1.14604892e-01
1.23721333e-01
1.30890424e-01
1.35753680e-01
1.39259821e-01
1.31497225e-01
1.21679466e-01
1.18729013e-01
1.30889583e-01
1.38068247e-01
1.43536403e-01
1.49008240e-01
1.52962561e-01
1.47021452e-01
1.39259015e-01
1.35760088e-01
1.43535765e-01
1.49013197e-01
1.52961936e-01
1.58902526e-01
1.63204114e-01
1.58902526e-01
1.52961936e-01
1.49013197e-01
1.52961478e-01
1.56919103e-01
1.59479621e-01
1.65751737e-01
1.70299840e-01
1.67504462e-01
1.63203658e-01
1.58906135e-01
1.59479325e-01
1.62048382e-01
1.63305712e-01
1.69775355e-01
1.74470371e-01
1.73093960e-01
1.70299542e-01
1.65754089e-01
1.63305567e-01
1.64571204e-01
1.64567091e-01
1.71102709e-01
1.75846122e-01
1.75845578e-01
1.74470224e-01
1.69776514e-01
1.64567091e-01
1.64571204e-01
1.63305567e-01
1.69776514e-01
1.74470224e-01
1.75845578e-01
1.75846122e-01
1.71102709e-01
1.63305712e-01
1.62048382e-01
1.59479325e-01
1.65754089e-01
1.70299542e-01
1.73093960e-01
1.74470371e-01
1.69775355e-01
1.59479621e-01
1.56919103e-01
1.52961478e-01
1.58906135e-01
1.63203658e-01
1.67504462e-01
1.70299840e-01
1.65751737e-01
1.52961936e-01
1.49013197e-01
1.43535765e-01
1.49013197e-01
1.52961936e-01
1.58902526e-01
1.63204114e-01
1.58902526e-01
1.43536403e-01
1.38068247e-01
1.30889583e-01
1.35760088e-01
1.39259015e-01
1.47021452e-01
1.52962561e-01
1.49008240e-01
1.30890424e-01
1.23721333e-01
1.14604892e-01
1.18729013e-01
1.21679466e-01
1.31497225e-01
1.39259821e-01
1.35753680e-01
1.14605960e-01
1.05499092e-01
9.41484012e-02
9.73927828e-02
9.97029357e-02
1.11862996e-01
1.21680463e-01
1.18721071e-01
9.41497228e-02
8.28079395e-02
6.88634972e-02
7.11109443e-02
7.27014614e-02
8.75447758e-02
9.97041382e-02
9.73832642e-02
6.88648484e-02
5.49307576e-02
3.79716772e-02
3.91230560e-02
3.99449416e-02
5.78634451e-02
7.27026396e-02
7.11000700e-02
3.79738581e-02
2.10628545e-02
5.24113442e-04
5.61481680e-04
5.49689242e-04
2.20749525e-02
3.99468444e-02
3.91010534e-02
5.49632939e-04
2.20756208e-02
3.99467258e-02
4.07420948e-02
4.12950978e-02
2.27667304e-02
5.67082568e-04
5.81882142e-04
3.99447905e-02
5.78650468e-02
7.27023916e-02
7.42964865e-02
7.53295222e-02
5.98700655e-02
4.12933428e-02
4.07633032e-02
7.27012281e-02
8.75471614e-02
9.97038183e-02
1.02016875e-01
1.03515058e-01
9.07925732e-02
7.53284751e-02
7.43064319e-02
9.97026098e-02
1.11865974e-01
1.21680080e-01
1.24633843e-01
1.26547429e-01
1.16237798e-01
1.03513936e-01
1.02025758e-01
1.21679071e-01
1.31500573e-01
1.39259396e-01
1.42761706e-01
1.45033009e-01
1.36857326e-01
1.26546477e-01
1.24641411e-01
1.39258577e-01
1.47024991e-01
1.52962114e-01
1.56914204e-01
1.59480241e-01
1.53208873e-01
1.45032222e-01
1.42767934e-01
1.52961478e-01
1.58906135e-01
1.63203658e-01
1.67504462e-01
1.70299840e-01
1.65751737e-01
1.59479621e-01
1.56919103e-01
1.63203193e-01
1.67508075e-01
1.70299381e-01
1.74848051e-01
1.77806721e-01
1.74848051e-01
1.70299381e-01
1.67508075e-01
1.70299078e-01
1.73097554e-01
1.74469914e-01
1.79166801e-01
1.82222917e-01
1.80765526e-01
1.77806419e-01
1.74850426e-01
1.74469764e-01
1.75849154e-01
1.75845664e-01
1.80592249e-01
1.83680351e-01
1.83680517e-01
1.82222768e-01
1.79167978e-01
1.75845664e-01
1.75849154e-01
1.74469764e-01
1.79167978e-01
1.82222768e-01
1.83680517e-01
1.83680351e-01
1.80592249e-01
1.74469914e-01
1.73097554e-01
1.70299078e-01
1.74850426e-01
1.77806419e-01
1.80765526e-01
1.82222917e-01
1.79166801e-01
1.70299381e-01
1.67508075e-01
1.63203193e-01
1.67508075e-01
1.70299381e-01
1.74848051e-01
1.77806721e-01
1.74848051e-01
1.63203658e-01
1.58906135e-01
1.52961478e-01
1.56919103e-01
1.59479621e-01
1.65751737e-01
1.70299840e-01
1.67504462e-01
1.52962114e-01
1.47024991e-01
1.39258577e-01
1.42767934e-01
1.45032222e-01
1.53208873e-01
1.59480241e-01
1.56914204e-01
1.39259396e-01
1.31500573e-01
1.21679071e-01
1.24641411e-01
1.26546477e-01
1.36857326e-01
1.45033009e-01
1.42761706e-01
1.21680080e-01
1.11865974e-01
9.97026098e-02
1.02025758e-01
1.03513936e-01
1.16237798e-01
1.26547429e-01
1.24633843e-01
9.97038183e-02
8.75471614e-02
7.27012281e-02
7.43064319e-02
7.53284751e-02
9.07925732e-02
1.03515058e-01
1.02016875e-01
7.27023916e-02
5.78650468e-02
3.99447905e-02
4.07633032e-02
4.12933428e-02
5.98700655e-02
7.53295222e-02
7.42964865e-02