# vtk DataFile Version 3.0 
Date: 4/27/2016   Time: 16:42
ASCII 
DATASET UNSTRUCTURED_GRID 
 
POINTS 400 float 
0.000000 0.000000 0.000000 
0.100000 0.000000 0.000000 
0.100000 0.100000 0.000000 
0.000000 0.100000 0.000000 
0.100000 0.000000 0.000000 
0.200000 0.000000 0.000000 
0.200000 0.100000 0.000000 
0.100000 0.100000 0.000000 
0.200000 0.000000 0.000000 
0.300000 0.000000 0.000000 
0.300000 0.100000 0.000000 
0.200000 0.100000 0.000000 
0.300000 0.000000 0.000000 
0.400000 0.000000 0.000000 
0.400000 0.100000 0.000000 
0.300000 0.100000 0.000000 
0.400000 0.000000 0.000000 
0.500000 0.000000 0.000000 
0.500000 0.100000 0.000000 
0.400000 0.100000 0.000000 
0.500000 0.000000 0.000000 
0.600000 0.000000 0.000000 
0.600000 0.100000 0.000000 
0.500000 0.100000 0.000000 
0.600000 0.000000 0.000000 
0.700000 0.000000 0.000000 
0.700000 0.100000 0.000000 
0.600000 0.100000 0.000000 
0.700000 0.000000 0.000000 
0.800000 0.000000 0.000000 
0.800000 0.100000 0.000000 
0.700000 0.100000 0.000000 
0.800000 0.000000 0.000000 
0.900000 0.000000 0.000000 
0.900000 0.100000 0.000000 
0.800000 0.100000 0.000000 
0.900000 0.000000 0.000000 
1.000000 0.000000 0.000000 
1.000000 0.100000 0.000000 
0.900000 0.100000 0.000000 
0.000000 0.100000 0.000000 
0.100000 0.100000 0.000000 
0.100000 0.200000 0.000000 
0.000000 0.200000 0.000000 
0.100000 0.100000 0.000000 
0.200000 0.100000 0.000000 
0.200000 0.200000 0.000000 
0.100000 0.200000 0.000000 
0.200000 0.100000 0.000000 
0.300000 0.100000 0.000000 
0.300000 0.200000 0.000000 
0.200000 0.200000 0.000000 
0.300000 0.100000 0.000000 
0.400000 0.100000 0.000000 
0.400000 0.200000 0.000000 
0.300000 0.200000 0.000000 
0.400000 0.100000 0.000000 
0.500000 0.100000 0.000000 
0.500000 0.200000 0.000000 
0.400000 0.200000 0.000000 
0.500000 0.100000 0.000000 
0.600000 0.100000 0.000000 
0.600000 0.200000 0.000000 
0.500000 0.200000 0.000000 
0.600000 0.100000 0.000000 
0.700000 0.100000 0.000000 
0.700000 0.200000 0.000000 
0.600000 0.200000 0.000000 
0.700000 0.100000 0.000000 
0.800000 0.100000 0.000000 
0.800000 0.200000 0.000000 
0.700000 0.200000 0.000000 
0.800000 0.100000 0.000000 
0.900000 0.100000 0.000000 
0.900000 0.200000 0.000000 
0.800000 0.200000 0.000000 
0.900000 0.100000 0.000000 
1.000000 0.100000 0.000000 
1.000000 0.200000 0.000000 
0.900000 0.200000 0.000000 
0.000000 0.200000 0.000000 
0.100000 0.200000 0.000000 
0.100000 0.300000 0.000000 
0.000000 0.300000 0.000000 
0.100000 0.200000 0.000000 
0.200000 0.200000 0.000000 
0.200000 0.300000 0.000000 
0.100000 0.300000 0.000000 
0.200000 0.200000 0.000000 
0.300000 0.200000 0.000000 
0.300000 0.300000 0.000000 
0.200000 0.300000 0.000000 
0.300000 0.200000 0.000000 
0.400000 0.200000 0.000000 
0.400000 0.300000 0.000000 
0.300000 0.300000 0.000000 
0.400000 0.200000 0.000000 
0.500000 0.200000 0.000000 
0.500000 0.300000 0.000000 
0.400000 0.300000 0.000000 
0.500000 0.200000 0.000000 
0.600000 0.200000 0.000000 
0.600000 0.300000 0.000000 
0.500000 0.300000 0.000000 
0.600000 0.200000 0.000000 
0.700000 0.200000 0.000000 
0.700000 0.300000 0.000000 
0.600000 0.300000 0.000000 
0.700000 0.200000 0.000000 
0.800000 0.200000 0.000000 
0.800000 0.300000 0.000000 
0.700000 0.300000 0.000000 
0.800000 0.200000 0.000000 
0.900000 0.200000 0.000000 
0.900000 0.300000 0.000000 
0.800000 0.300000 0.000000 
0.900000 0.200000 0.000000 
1.000000 0.200000 0.000000 
1.000000 0.300000 0.000000 
0.900000 0.300000 0.000000 
0.000000 0.300000 0.000000 
0.100000 0.300000 0.000000 
0.100000 0.400000 0.000000 
0.000000 0.400000 0.000000 
0.100000 0.300000 0.000000 
0.200000 0.300000 0.000000 
0.200000 0.400000 0.000000 
0.100000 0.400000 0.000000 
0.200000 0.300000 0.000000 
0.300000 0.300000 0.000000 
0.300000 0.400000 0.000000 
0.200000 0.400000 0.000000 
0.300000 0.300000 0.000000 
0.400000 0.300000 0.000000 
0.400000 0.400000 0.000000 
0.300000 0.400000 0.000000 
0.400000 0.300000 0.000000 
0.500000 0.300000 0.000000 
0.500000 0.400000 0.000000 
0.400000 0.400000 0.000000 
0.500000 0.300000 0.000000 
0.600000 0.300000 0.000000 
0.600000 0.400000 0.000000 
0.500000 0.400000 0.000000 
0.600000 0.300000 0.000000 
0.700000 0.300000 0.000000 
0.700000 0.400000 0.000000 
0.600000 0.400000 0.000000 
0.700000 0.300000 0.000000 
0.800000 0.300000 0.000000 
0.800000 0.400000 0.000000 
0.700000 0.400000 0.000000 
0.800000 0.300000 0.000000 
0.900000 0.300000 0.000000 
0.900000 0.400000 0.000000 
0.800000 0.400000 0.000000 
0.900000 0.300000 0.000000 
1.000000 0.300000 0.000000 
1.000000 0.400000 0.000000 
0.900000 0.400000 0.000000 
0.000000 0.400000 0.000000 
0.100000 0.400000 0.000000 
0.100000 0.500000 0.000000 
0.000000 0.500000 0.000000 
0.100000 0.400000 0.000000 
0.200000 0.400000 0.000000 
0.200000 0.500000 0.000000 
0.100000 0.500000 0.000000 
0.200000 0.400000 0.000000 
0.300000 0.400000 0.000000 
0.300000 0.500000 0.000000 
0.200000 0.500000 0.000000 
0.300000 0.400000 0.000000 
0.400000 0.400000 0.000000 
0.400000 0.500000 0.000000 
0.300000 0.500000 0.000000 
0.400000 0.400000 0.000000 
0.500000 0.400000 0.000000 
0.500000 0.500000 0.000000 
0.400000 0.500000 0.000000 
0.500000 0.400000 0.000000 
0.600000 0.400000 0.000000 
0.600000 0.500000 0.000000 
0.500000 0.500000 0.000000 
0.600000 0.400000 0.000000 
0.700000 0.400000 0.000000 
0.700000 0.500000 0.000000 
0.600000 0.500000 0.000000 
0.700000 0.400000 0.000000 
0.800000 0.400000 0.000000 
0.800000 0.500000 0.000000 
0.700000 0.500000 0.000000 
0.800000 0.400000 0.000000 
0.900000 0.400000 0.000000 
0.900000 0.500000 0.000000 
0.800000 0.500000 0.000000 
0.900000 0.400000 0.000000 
1.000000 0.400000 0.000000 
1.000000 0.500000 0.000000 
0.900000 0.500000 0.000000 
0.000000 0.500000 0.000000 
0.100000 0.500000 0.000000 
0.100000 0.600000 0.000000 
0.000000 0.600000 0.000000 
0.100000 0.500000 0.000000 
0.200000 0.500000 0.000000 
0.200000 0.600000 0.000000 
0.100000 0.600000 0.000000 
0.200000 0.500000 0.000000 
0.300000 0.500000 0.000000 
0.300000 0.600000 0.000000 
0.200000 0.600000 0.000000 
0.300000 0.500000 0.000000 
0.400000 0.500000 0.000000 
0.400000 0.600000 0.000000 
0.300000 0.600000 0.000000 
0.400000 0.500000 0.000000 
0.500000 0.500000 0.000000 
0.500000 0.600000 0.000000 
0.400000 0.600000 0.000000 
0.500000 0.500000 0.000000 
0.600000 0.500000 0.000000 
0.600000 0.600000 0.000000 
0.500000 0.600000 0.000000 
0.600000 0.500000 0.000000 
0.700000 0.500000 0.000000 
0.700000 0.600000 0.000000 
0.600000 0.600000 0.000000 
0.700000 0.500000 0.000000 
0.800000 0.500000 0.000000 
0.800000 0.600000 0.000000 
0.700000 0.600000 0.000000 
0.800000 0.500000 0.000000 
0.900000 0.500000 0.000000 
0.900000 0.600000 0.000000 
0.800000 0.600000 0.000000 
0.900000 0.500000 0.000000 
1.000000 0.500000 0.000000 
1.000000 0.600000 0.000000 
0.900000 0.600000 0.000000 
0.000000 0.600000 0.000000 
0.100000 0.600000 0.000000 
0.100000 0.700000 0.000000 
0.000000 0.700000 0.000000 
0.100000 0.600000 0.000000 
0.200000 0.600000 0.000000 
0.200000 0.700000 0.000000 
0.100000 0.700000 0.000000 
0.200000 0.600000 0.000000 
0.300000 0.600000 0.000000 
0.300000 0.700000 0.000000 
0.200000 0.700000 0.000000 
0.300000 0.600000 0.000000 
0.400000 0.600000 0.000000 
0.400000 0.700000 0.000000 
0.300000 0.700000 0.000000 
0.400000 0.600000 0.000000 
0.500000 0.600000 0.000000 
0.500000 0.700000 0.000000 
0.400000 0.700000 0.000000 
0.500000 0.600000 0.000000 
0.600000 0.600000 0.000000 
0.600000 0.700000 0.000000 
0.500000 0.700000 0.000000 
0.600000 0.600000 0.000000 
0.700000 0.600000 0.000000 
0.700000 0.700000 0.000000 
0.600000 0.700000 0.000000 
0.700000 0.600000 0.000000 
0.800000 0.600000 0.000000 
0.800000 0.700000 0.000000 
0.700000 0.700000 0.000000 
0.800000 0.600000 0.000000 
0.900000 0.600000 0.000000 
0.900000 0.700000 0.000000 
0.800000 0.700000 0.000000 
0.900000 0.600000 0.000000 
1.000000 0.600000 0.000000 
1.000000 0.700000 0.000000 
0.900000 0.700000 0.000000 
0.000000 0.700000 0.000000 
0.100000 0.700000 0.000000 
0.100000 0.800000 0.000000 
0.000000 0.800000 0.000000 
0.100000 0.700000 0.000000 
0.200000 0.700000 0.000000 
0.200000 0.800000 0.000000 
0.100000 0.800000 0.000000 
0.200000 0.700000 0.000000 
0.300000 0.700000 0.000000 
0.300000 0.800000 0.000000 
0.200000 0.800000 0.000000 
0.300000 0.700000 0.000000 
0.400000 0.700000 0.000000 
0.400000 0.800000 0.000000 
0.300000 0.800000 0.000000 
0.400000 0.700000 0.000000 
0.500000 0.700000 0.000000 
0.500000 0.800000 0.000000 
0.400000 0.800000 0.000000 
0.500000 0.700000 0.000000 
0.600000 0.700000 0.000000 
0.600000 0.800000 0.000000 
0.500000 0.800000 0.000000 
0.600000 0.700000 0.000000 
0.700000 0.700000 0.000000 
0.700000 0.800000 0.000000 
0.600000 0.800000 0.000000 
0.700000 0.700000 0.000000 
0.800000 0.700000 0.000000 
0.800000 0.800000 0.000000 
0.700000 0.800000 0.000000 
0.800000 0.700000 0.000000 
0.900000 0.700000 0.000000 
0.900000 0.800000 0.000000 
0.800000 0.800000 0.000000 
0.900000 0.700000 0.000000 
1.000000 0.700000 0.000000 
1.000000 0.800000 0.000000 
0.900000 0.800000 0.000000 
0.000000 0.800000 0.000000 
0.100000 0.800000 0.000000 
0.100000 0.900000 0.000000 
0.000000 0.900000 0.000000 
0.100000 0.800000 0.000000 
0.200000 0.800000 0.000000 
0.200000 0.900000 0.000000 
0.100000 0.900000 0.000000 
0.200000 0.800000 0.000000 
0.300000 0.800000 0.000000 
0.300000 0.900000 0.000000 
0.200000 0.900000 0.000000 
0.300000 0.800000 0.000000 
0.400000 0.800000 0.000000 
0.400000 0.900000 0.000000 
0.300000 0.900000 0.000000 
0.400000 0.800000 0.000000 
0.500000 0.800000 0.000000 
0.500000 0.900000 0.000000 
0.400000 0.900000 0.000000 
0.500000 0.800000 0.000000 
0.600000 0.800000 0.000000 
0.600000 0.900000 0.000000 
0.500000 0.900000 0.000000 
0.600000 0.800000 0.000000 
0.700000 0.800000 0.000000 
0.700000 0.900000 0.000000 
0.600000 0.900000 0.000000 
0.700000 0.800000 0.000000 
0.800000 0.800000 0.000000 
0.800000 0.900000 0.000000 
0.700000 0.900000 0.000000 
0.800000 0.800000 0.000000 
0.900000 0.800000 0.000000 
0.900000 0.900000 0.000000 
0.800000 0.900000 0.000000 
0.900000 0.800000 0.000000 
1.000000 0.800000 0.000000 
1.000000 0.900000 0.000000 
0.900000 0.900000 0.000000 
0.000000 0.900000 0.000000 
0.100000 0.900000 0.000000 
0.100000 1.000000 0.000000 
0.000000 1.000000 0.000000 
0.100000 0.900000 0.000000 
0.200000 0.900000 0.000000 
0.200000 1.000000 0.000000 
0.100000 1.000000 0.000000 
0.200000 0.900000 0.000000 
0.300000 0.900000 0.000000 
0.300000 1.000000 0.000000 
0.200000 1.000000 0.000000 
0.300000 0.900000 0.000000 
0.400000 0.900000 0.000000 
0.400000 1.000000 0.000000 
0.300000 1.000000 0.000000 
0.400000 0.900000 0.000000 
0.500000 0.900000 0.000000 
0.500000 1.000000 0.000000 
0.400000 1.000000 0.000000 
0.500000 0.900000 0.000000 
0.600000 0.900000 0.000000 
0.600000 1.000000 0.000000 
0.500000 1.000000 0.000000 
0.600000 0.900000 0.000000 
0.700000 0.900000 0.000000 
0.700000 1.000000 0.000000 
0.600000 1.000000 0.000000 
0.700000 0.900000 0.000000 
0.800000 0.900000 0.000000 
0.800000 1.000000 0.000000 
0.700000 1.000000 0.000000 
0.800000 0.900000 0.000000 
0.900000 0.900000 0.000000 
0.900000 1.000000 0.000000 
0.800000 1.000000 0.000000 
0.900000 0.900000 0.000000 
1.000000 0.900000 0.000000 
1.000000 1.000000 0.000000 
0.900000 1.000000 0.000000 
CELLS 100 500 
 4 0 1 2 3  
 4 4 5 6 7  
 4 8 9 10 11  
 4 12 13 14 15  
 4 16 17 18 19  
 4 20 21 22 23  
 4 24 25 26 27  
 4 28 29 30 31  
 4 32 33 34 35  
 4 36 37 38 39  
 4 40 41 42 43  
 4 44 45 46 47  
 4 48 49 50 51  
 4 52 53 54 55  
 4 56 57 58 59  
 4 60 61 62 63  
 4 64 65 66 67  
 4 68 69 70 71  
 4 72 73 74 75  
 4 76 77 78 79  
 4 80 81 82 83  
 4 84 85 86 87  
 4 88 89 90 91  
 4 92 93 94 95  
 4 96 97 98 99  
 4 100 101 102 103  
 4 104 105 106 107  
 4 108 109 110 111  
 4 112 113 114 115  
 4 116 117 118 119  
 4 120 121 122 123  
 4 124 125 126 127  
 4 128 129 130 131  
 4 132 133 134 135  
 4 136 137 138 139  
 4 140 141 142 143  
 4 144 145 146 147  
 4 148 149 150 151  
 4 152 153 154 155  
 4 156 157 158 159  
 4 160 161 162 163  
 4 164 165 166 167  
 4 168 169 170 171  
 4 172 173 174 175  
 4 176 177 178 179  
 4 180 181 182 183  
 4 184 185 186 187  
 4 188 189 190 191  
 4 192 193 194 195  
 4 196 197 198 199  
 4 200 201 202 203  
 4 204 205 206 207  
 4 208 209 210 211  
 4 212 213 214 215  
 4 216 217 218 219  
 4 220 221 222 223  
 4 224 225 226 227  
 4 228 229 230 231  
 4 232 233 234 235  
 4 236 237 238 239  
 4 240 241 242 243  
 4 244 245 246 247  
 4 248 249 250 251  
 4 252 253 254 255  
 4 256 257 258 259  
 4 260 261 262 263  
 4 264 265 266 267  
 4 268 269 270 271  
 4 272 273 274 275  
 4 276 277 278 279  
 4 280 281 282 283  
 4 284 285 286 287  
 4 288 289 290 291  
 4 292 293 294 295  
 4 296 297 298 299  
 4 300 301 302 303  
 4 304 305 306 307  
 4 308 309 310 311  
 4 312 313 314 315  
 4 316 317 318 319  
 4 320 321 322 323  
 4 324 325 326 327  
 4 328 329 330 331  
 4 332 333 334 335  
 4 336 337 338 339  
 4 340 341 342 343  
 4 344 345 346 347  
 4 348 349 350 351  
 4 352 353 354 355  
 4 356 357 358 359  
 4 360 361 362 363  
 4 364 365 366 367  
 4 368 369 370 371  
 4 372 373 374 375  
 4 376 377 378 379  
 4 380 381 382 383  
 4 384 385 386 387  
 4 388 389 390 391  
 4 392 393 394 395  
 4 396 397 398 399  
 
CELL_TYPES 100
7
7
7
7
7
7
7
7
7
7
7
7
7
7
7
7
7
7
7
7
7
7
7
7
7
7
7
7
7
7
7
7
7
7
7
7
7
7
7
7
7
7
7
7
7
7
7
7
7
7
7
7
7
7
7
7
7
7
7
7
7
7
7
7
7
7
7
7
7
7
7
7
7
7
7
7
7
7
7
7
7
7
7
7
7
7
7
7
7
7
7
7
7
7
7
7
7
7
7
7
CELL_DATA 100
FIELD FieldData 1
material 1 100 int
1
1
1
1
1
1
1
1
1
1
1
1
1
1
1
1
1
1
1
1
1
1
1
1
1
1
1
1
1
1
1
1
1
1
1
1
1
1
1
1
1
1
1
1
1
1
1
1
1
1
1
1
1
1
1
1
1
1
1
1
1
1
1
1
1
1
1
1
1
1
1
1
1
1
1
1
1
1
1
1
1
1
1
1
1
1
1
1
1
1
1
1
1
1
1
1
1
1
1
1
POINT_DATA 400 SCALARS flux_g1 double 
LOOKUP_TABLE   default 
5.35448471e-08
4.23213291e-07
3.68343869e-02
4.23212971e-07
4.13586523e-07
5.41416892e-07
5.71150599e-02
3.68343555e-02
5.43178314e-07
6.28096289e-07
6.90772155e-02
5.71150510e-02
6.27778214e-07
6.70737356e-07
7.54661969e-02
6.90772117e-02
6.70796924e-07
6.84562833e-07
7.74803842e-02
7.54661953e-02
6.84562327e-07
6.70798421e-07
7.54662302e-02
7.74803842e-02
6.70738895e-07
6.27777632e-07
6.90773139e-02
7.54662317e-02
6.28096371e-07
5.43179554e-07
5.71150550e-02
6.90773178e-02
5.41417825e-07
4.13585716e-07
3.68343689e-02
5.71150638e-02
4.23212235e-07
5.35452214e-08
4.23212920e-07
3.68344003e-02
4.13586784e-07
3.68343555e-02
5.71150676e-02
5.41416414e-07
3.68343266e-02
5.71150436e-02
9.32900255e-02
5.71150513e-02
5.71150342e-02
6.90772009e-02
1.15307311e-01
9.32900134e-02
6.90771972e-02
7.54661842e-02
1.27227767e-01
1.15307305e-01
7.54661827e-02
7.74803719e-02
1.31004665e-01
1.27227764e-01
7.74803719e-02
7.54662175e-02
1.27227946e-01
1.31004665e-01
7.54662191e-02
6.90772995e-02
1.15307367e-01
1.27227948e-01
6.90773032e-02
5.71150381e-02
9.32900595e-02
1.15307373e-01
5.71150476e-02
3.68343401e-02
5.71150327e-02
9.32900716e-02
3.68343689e-02
4.13586291e-07
5.41416119e-07
5.71150490e-02
5.43177818e-07
5.71150587e-02
6.90772339e-02
6.28096376e-07
5.71150419e-02
9.32900134e-02
1.15307395e-01
6.90772192e-02
9.32900014e-02
1.15307301e-01
1.44461016e-01
1.15307385e-01
1.15307295e-01
1.27227757e-01
1.60483654e-01
1.44461010e-01
1.27227754e-01
1.31004656e-01
1.65590742e-01
1.60483651e-01
1.31004656e-01
1.27227936e-01
1.60483732e-01
1.65590742e-01
1.27227938e-01
1.15307357e-01
1.44461112e-01
1.60483735e-01
1.15307363e-01
9.32900475e-02
1.15307572e-01
1.44461119e-01
9.32900595e-02
5.71150233e-02
6.90773042e-02
1.15307582e-01
5.71150401e-02
5.43178534e-07
6.28097821e-07
6.90773188e-02
6.27777286e-07
6.90772300e-02
7.54662755e-02
6.70738416e-07
6.90772155e-02
1.15307389e-01
1.27228026e-01
7.54662629e-02
1.15307379e-01
1.44461010e-01
1.60483912e-01
1.27228016e-01
1.44461003e-01
1.60483647e-01
1.78965700e-01
1.60483906e-01
1.60483644e-01
1.65590736e-01
1.84883597e-01
1.78965696e-01
1.65590736e-01
1.60483726e-01
1.78965853e-01
1.84883597e-01
1.60483729e-01
1.44461105e-01
1.60484023e-01
1.78965856e-01
1.44461112e-01
1.15307566e-01
1.27228092e-01
1.60484029e-01
1.15307576e-01
6.90773005e-02
7.54664002e-02
1.27228102e-01
6.90773150e-02
6.27779283e-07
6.70738405e-07
7.54664129e-02
6.70796653e-07
7.54662740e-02
7.74804418e-02
6.84564802e-07
7.54662613e-02
1.27228023e-01
1.31004868e-01
7.74804296e-02
1.27228013e-01
1.60483909e-01
1.65591094e-01
1.31004859e-01
1.60483902e-01
1.78965696e-01
1.84883563e-01
1.65591088e-01
1.78965693e-01
1.84883594e-01
1.91072095e-01
1.84883560e-01
1.84883594e-01
1.78965850e-01
1.84883722e-01
1.91072095e-01
1.78965853e-01
1.60484020e-01
1.65591279e-01
1.84883725e-01
1.60484026e-01
1.27228089e-01
1.31004808e-01
1.65591285e-01
1.27228099e-01
7.54663986e-02
7.74805602e-02
1.31004818e-01
7.54664113e-02
6.70797948e-07
6.84565027e-07
7.74805725e-02
6.84565501e-07
7.74804418e-02
7.54664621e-02
6.70797145e-07
7.74804296e-02
1.31004868e-01
1.27228175e-01
7.54664494e-02
1.31004859e-01
1.65591094e-01
1.60484113e-01
1.27228166e-01
1.65591088e-01
1.84883563e-01
1.78965705e-01
1.60484106e-01
1.84883560e-01
1.91072095e-01
1.84883541e-01
1.78965702e-01
1.91072095e-01
1.84883722e-01
1.78965861e-01
1.84883541e-01
1.84883725e-01
1.65591279e-01
1.60484004e-01
1.78965864e-01
1.65591285e-01
1.31004808e-01
1.27228383e-01
1.60484010e-01
1.31004818e-01
7.74805602e-02
7.54666030e-02
1.27228393e-01
7.74805725e-02
6.84566368e-07
6.70799329e-07
7.54666157e-02
6.70739290e-07
7.54664636e-02
6.90774411e-02
6.27780555e-07
7.54664510e-02
1.27228178e-01
1.15307671e-01
6.90774266e-02
1.27228168e-01
1.60484116e-01
1.44461550e-01
1.15307661e-01
1.60484110e-01
1.78965708e-01
1.60484129e-01
1.44461544e-01
1.78965705e-01
1.84883545e-01
1.65591165e-01
1.60484126e-01
1.84883545e-01
1.78965864e-01
1.60484003e-01
1.65591165e-01
1.78965867e-01
1.60484007e-01
1.44461552e-01
1.60484006e-01
1.60484013e-01
1.27228386e-01
1.15307815e-01
1.44461559e-01
1.27228395e-01
7.54666046e-02
6.90774447e-02
1.15307825e-01
7.54666173e-02
6.70740821e-07
6.27780621e-07
6.90774592e-02
6.28098421e-07
6.90774449e-02
5.71151042e-02
5.43179325e-07
6.90774303e-02
1.15307677e-01
9.32900172e-02
5.71150874e-02
1.15307667e-01
1.44461557e-01
1.15307717e-01
9.32900053e-02
1.44461550e-01
1.60484136e-01
1.27228434e-01
1.15307711e-01
1.60484133e-01
1.65591171e-01
1.31004987e-01
1.27228431e-01
1.65591171e-01
1.60484010e-01
1.27228419e-01
1.31004987e-01
1.60484013e-01
1.44461559e-01
1.15307883e-01
1.27228421e-01
1.44461566e-01
1.15307821e-01
9.32903002e-02
1.15307889e-01
1.15307831e-01
6.90774484e-02
5.71151608e-02
9.32903121e-02
6.90774630e-02
6.28098934e-07
5.43178754e-07
5.71151776e-02
5.41418287e-07
5.71151131e-02
3.68343329e-02
4.13586803e-07
5.71150968e-02
9.32900293e-02
5.71150065e-02
3.68343040e-02
9.32900172e-02
1.15307728e-01
6.90773522e-02
5.71149971e-02
1.15307722e-01
1.27228443e-01
7.54665366e-02
6.90773485e-02
1.27228441e-01
1.31004997e-01
7.74807035e-02
7.54665350e-02
1.31004997e-01
1.27228429e-01
7.54665937e-02
7.74807035e-02
1.27228431e-01
1.15307894e-01
6.90775450e-02
7.54665953e-02
1.15307900e-01
9.32903121e-02
5.71151350e-02
6.90775487e-02
9.32903242e-02
5.71151702e-02
3.68344092e-02
5.71151444e-02
5.71151865e-02
5.41417790e-07
4.13586846e-07
3.68344381e-02
4.23213589e-07
3.68343643e-02
4.23212506e-07
5.35449008e-08
3.68343329e-02
5.71150228e-02
5.41417583e-07
4.13586223e-07
5.71150139e-02
6.90773668e-02
6.28096516e-07
5.43179152e-07
6.90773630e-02
7.54665493e-02
6.70740899e-07
6.27777545e-07
7.54665477e-02
7.74807157e-02
6.84566508e-07
6.70798653e-07
7.74807157e-02
7.54666064e-02
6.70799038e-07
6.84564791e-07
7.54666080e-02
6.90775595e-02
6.27778964e-07
6.70739681e-07
6.90775633e-02
5.71151518e-02
5.43181125e-07
6.28096461e-07
5.71151607e-02
3.68344381e-02
4.13586194e-07
5.41419257e-07
3.68344695e-02
4.23213791e-07
5.35449254e-08
4.23213034e-07
 
