# vtk DataFile Version 3.0 
Date: 3/21/2016   Time: 12:48
ASCII 
DATASET UNSTRUCTURED_GRID 
 
POINTS 288 float 
0.000000 0.000000 0.000000 
0.083333 0.000000 0.000000 
0.166667 0.000000 0.000000 
0.166667 0.083333 0.000000 
0.166667 0.166667 0.000000 
0.083333 0.166667 0.000000 
0.000000 0.166667 0.000000 
0.000000 0.083333 0.000000 
0.166667 0.000000 0.000000 
0.250000 0.000000 0.000000 
0.333333 0.000000 0.000000 
0.333333 0.083333 0.000000 
0.333333 0.166667 0.000000 
0.250000 0.166667 0.000000 
0.166667 0.166667 0.000000 
0.166667 0.083333 0.000000 
0.333333 0.000000 0.000000 
0.416667 0.000000 0.000000 
0.500000 0.000000 0.000000 
0.500000 0.083333 0.000000 
0.500000 0.166667 0.000000 
0.416667 0.166667 0.000000 
0.333333 0.166667 0.000000 
0.333333 0.083333 0.000000 
0.500000 0.000000 0.000000 
0.583333 0.000000 0.000000 
0.666667 0.000000 0.000000 
0.666667 0.083333 0.000000 
0.666667 0.166667 0.000000 
0.583333 0.166667 0.000000 
0.500000 0.166667 0.000000 
0.500000 0.083333 0.000000 
0.666667 0.000000 0.000000 
0.750000 0.000000 0.000000 
0.833333 0.000000 0.000000 
0.833333 0.083333 0.000000 
0.833333 0.166667 0.000000 
0.750000 0.166667 0.000000 
0.666667 0.166667 0.000000 
0.666667 0.083333 0.000000 
0.833333 0.000000 0.000000 
0.916667 0.000000 0.000000 
1.000000 0.000000 0.000000 
1.000000 0.083333 0.000000 
1.000000 0.166667 0.000000 
0.916667 0.166667 0.000000 
0.833333 0.166667 0.000000 
0.833333 0.083333 0.000000 
0.000000 0.166667 0.000000 
0.083333 0.166667 0.000000 
0.166667 0.166667 0.000000 
0.166667 0.250000 0.000000 
0.166667 0.333333 0.000000 
0.083333 0.333333 0.000000 
0.000000 0.333333 0.000000 
0.000000 0.250000 0.000000 
0.166667 0.166667 0.000000 
0.250000 0.166667 0.000000 
0.333333 0.166667 0.000000 
0.333333 0.250000 0.000000 
0.333333 0.333333 0.000000 
0.250000 0.333333 0.000000 
0.166667 0.333333 0.000000 
0.166667 0.250000 0.000000 
0.333333 0.166667 0.000000 
0.416667 0.166667 0.000000 
0.500000 0.166667 0.000000 
0.500000 0.250000 0.000000 
0.500000 0.333333 0.000000 
0.416667 0.333333 0.000000 
0.333333 0.333333 0.000000 
0.333333 0.250000 0.000000 
0.500000 0.166667 0.000000 
0.583333 0.166667 0.000000 
0.666667 0.166667 0.000000 
0.666667 0.250000 0.000000 
0.666667 0.333333 0.000000 
0.583333 0.333333 0.000000 
0.500000 0.333333 0.000000 
0.500000 0.250000 0.000000 
0.666667 0.166667 0.000000 
0.750000 0.166667 0.000000 
0.833333 0.166667 0.000000 
0.833333 0.250000 0.000000 
0.833333 0.333333 0.000000 
0.750000 0.333333 0.000000 
0.666667 0.333333 0.000000 
0.666667 0.250000 0.000000 
0.833333 0.166667 0.000000 
0.916667 0.166667 0.000000 
1.000000 0.166667 0.000000 
1.000000 0.250000 0.000000 
1.000000 0.333333 0.000000 
0.916667 0.333333 0.000000 
0.833333 0.333333 0.000000 
0.833333 0.250000 0.000000 
0.000000 0.333333 0.000000 
0.083333 0.333333 0.000000 
0.166667 0.333333 0.000000 
0.166667 0.416667 0.000000 
0.166667 0.500000 0.000000 
0.083333 0.500000 0.000000 
0.000000 0.500000 0.000000 
0.000000 0.416667 0.000000 
0.166667 0.333333 0.000000 
0.250000 0.333333 0.000000 
0.333333 0.333333 0.000000 
0.333333 0.416667 0.000000 
0.333333 0.500000 0.000000 
0.250000 0.500000 0.000000 
0.166667 0.500000 0.000000 
0.166667 0.416667 0.000000 
0.333333 0.333333 0.000000 
0.416667 0.333333 0.000000 
0.500000 0.333333 0.000000 
0.500000 0.416667 0.000000 
0.500000 0.500000 0.000000 
0.416667 0.500000 0.000000 
0.333333 0.500000 0.000000 
0.333333 0.416667 0.000000 
0.500000 0.333333 0.000000 
0.583333 0.333333 0.000000 
0.666667 0.333333 0.000000 
0.666667 0.416667 0.000000 
0.666667 0.500000 0.000000 
0.583333 0.500000 0.000000 
0.500000 0.500000 0.000000 
0.500000 0.416667 0.000000 
0.666667 0.333333 0.000000 
0.750000 0.333333 0.000000 
0.833333 0.333333 0.000000 
0.833333 0.416667 0.000000 
0.833333 0.500000 0.000000 
0.750000 0.500000 0.000000 
0.666667 0.500000 0.000000 
0.666667 0.416667 0.000000 
0.833333 0.333333 0.000000 
0.916667 0.333333 0.000000 
1.000000 0.333333 0.000000 
1.000000 0.416667 0.000000 
1.000000 0.500000 0.000000 
0.916667 0.500000 0.000000 
0.833333 0.500000 0.000000 
0.833333 0.416667 0.000000 
0.000000 0.500000 0.000000 
0.083333 0.500000 0.000000 
0.166667 0.500000 0.000000 
0.166667 0.583333 0.000000 
0.166667 0.666667 0.000000 
0.083333 0.666667 0.000000 
0.000000 0.666667 0.000000 
0.000000 0.583333 0.000000 
0.166667 0.500000 0.000000 
0.250000 0.500000 0.000000 
0.333333 0.500000 0.000000 
0.333333 0.583333 0.000000 
0.333333 0.666667 0.000000 
0.250000 0.666667 0.000000 
0.166667 0.666667 0.000000 
0.166667 0.583333 0.000000 
0.333333 0.500000 0.000000 
0.416667 0.500000 0.000000 
0.500000 0.500000 0.000000 
0.500000 0.583333 0.000000 
0.500000 0.666667 0.000000 
0.416667 0.666667 0.000000 
0.333333 0.666667 0.000000 
0.333333 0.583333 0.000000 
0.500000 0.500000 0.000000 
0.583333 0.500000 0.000000 
0.666667 0.500000 0.000000 
0.666667 0.583333 0.000000 
0.666667 0.666667 0.000000 
0.583333 0.666667 0.000000 
0.500000 0.666667 0.000000 
0.500000 0.583333 0.000000 
0.666667 0.500000 0.000000 
0.750000 0.500000 0.000000 
0.833333 0.500000 0.000000 
0.833333 0.583333 0.000000 
0.833333 0.666667 0.000000 
0.750000 0.666667 0.000000 
0.666667 0.666667 0.000000 
0.666667 0.583333 0.000000 
0.833333 0.500000 0.000000 
0.916667 0.500000 0.000000 
1.000000 0.500000 0.000000 
1.000000 0.583333 0.000000 
1.000000 0.666667 0.000000 
0.916667 0.666667 0.000000 
0.833333 0.666667 0.000000 
0.833333 0.583333 0.000000 
0.000000 0.666667 0.000000 
0.083333 0.666667 0.000000 
0.166667 0.666667 0.000000 
0.166667 0.750000 0.000000 
0.166667 0.833333 0.000000 
0.083333 0.833333 0.000000 
0.000000 0.833333 0.000000 
0.000000 0.750000 0.000000 
0.166667 0.666667 0.000000 
0.250000 0.666667 0.000000 
0.333333 0.666667 0.000000 
0.333333 0.750000 0.000000 
0.333333 0.833333 0.000000 
0.250000 0.833333 0.000000 
0.166667 0.833333 0.000000 
0.166667 0.750000 0.000000 
0.333333 0.666667 0.000000 
0.416667 0.666667 0.000000 
0.500000 0.666667 0.000000 
0.500000 0.750000 0.000000 
0.500000 0.833333 0.000000 
0.416667 0.833333 0.000000 
0.333333 0.833333 0.000000 
0.333333 0.750000 0.000000 
0.500000 0.666667 0.000000 
0.583333 0.666667 0.000000 
0.666667 0.666667 0.000000 
0.666667 0.750000 0.000000 
0.666667 0.833333 0.000000 
0.583333 0.833333 0.000000 
0.500000 0.833333 0.000000 
0.500000 0.750000 0.000000 
0.666667 0.666667 0.000000 
0.750000 0.666667 0.000000 
0.833333 0.666667 0.000000 
0.833333 0.750000 0.000000 
0.833333 0.833333 0.000000 
0.750000 0.833333 0.000000 
0.666667 0.833333 0.000000 
0.666667 0.750000 0.000000 
0.833333 0.666667 0.000000 
0.916667 0.666667 0.000000 
1.000000 0.666667 0.000000 
1.000000 0.750000 0.000000 
1.000000 0.833333 0.000000 
0.916667 0.833333 0.000000 
0.833333 0.833333 0.000000 
0.833333 0.750000 0.000000 
0.000000 0.833333 0.000000 
0.083333 0.833333 0.000000 
0.166667 0.833333 0.000000 
0.166667 0.916667 0.000000 
0.166667 1.000000 0.000000 
0.083333 1.000000 0.000000 
0.000000 1.000000 0.000000 
0.000000 0.916667 0.000000 
0.166667 0.833333 0.000000 
0.250000 0.833333 0.000000 
0.333333 0.833333 0.000000 
0.333333 0.916667 0.000000 
0.333333 1.000000 0.000000 
0.250000 1.000000 0.000000 
0.166667 1.000000 0.000000 
0.166667 0.916667 0.000000 
0.333333 0.833333 0.000000 
0.416667 0.833333 0.000000 
0.500000 0.833333 0.000000 
0.500000 0.916667 0.000000 
0.500000 1.000000 0.000000 
0.416667 1.000000 0.000000 
0.333333 1.000000 0.000000 
0.333333 0.916667 0.000000 
0.500000 0.833333 0.000000 
0.583333 0.833333 0.000000 
0.666667 0.833333 0.000000 
0.666667 0.916667 0.000000 
0.666667 1.000000 0.000000 
0.583333 1.000000 0.000000 
0.500000 1.000000 0.000000 
0.500000 0.916667 0.000000 
0.666667 0.833333 0.000000 
0.750000 0.833333 0.000000 
0.833333 0.833333 0.000000 
0.833333 0.916667 0.000000 
0.833333 1.000000 0.000000 
0.750000 1.000000 0.000000 
0.666667 1.000000 0.000000 
0.666667 0.916667 0.000000 
0.833333 0.833333 0.000000 
0.916667 0.833333 0.000000 
1.000000 0.833333 0.000000 
1.000000 0.916667 0.000000 
1.000000 1.000000 0.000000 
0.916667 1.000000 0.000000 
0.833333 1.000000 0.000000 
0.833333 0.916667 0.000000 
CELLS 36 324 
 8 0 1 2 3 4 5 6 7  
 8 8 9 10 11 12 13 14 15  
 8 16 17 18 19 20 21 22 23  
 8 24 25 26 27 28 29 30 31  
 8 32 33 34 35 36 37 38 39  
 8 40 41 42 43 44 45 46 47  
 8 48 49 50 51 52 53 54 55  
 8 56 57 58 59 60 61 62 63  
 8 64 65 66 67 68 69 70 71  
 8 72 73 74 75 76 77 78 79  
 8 80 81 82 83 84 85 86 87  
 8 88 89 90 91 92 93 94 95  
 8 96 97 98 99 100 101 102 103  
 8 104 105 106 107 108 109 110 111  
 8 112 113 114 115 116 117 118 119  
 8 120 121 122 123 124 125 126 127  
 8 128 129 130 131 132 133 134 135  
 8 136 137 138 139 140 141 142 143  
 8 144 145 146 147 148 149 150 151  
 8 152 153 154 155 156 157 158 159  
 8 160 161 162 163 164 165 166 167  
 8 168 169 170 171 172 173 174 175  
 8 176 177 178 179 180 181 182 183  
 8 184 185 186 187 188 189 190 191  
 8 192 193 194 195 196 197 198 199  
 8 200 201 202 203 204 205 206 207  
 8 208 209 210 211 212 213 214 215  
 8 216 217 218 219 220 221 222 223  
 8 224 225 226 227 228 229 230 231  
 8 232 233 234 235 236 237 238 239  
 8 240 241 242 243 244 245 246 247  
 8 248 249 250 251 252 253 254 255  
 8 256 257 258 259 260 261 262 263  
 8 264 265 266 267 268 269 270 271  
 8 272 273 274 275 276 277 278 279  
 8 280 281 282 283 284 285 286 287  
 
CELL_TYPES 36
7
7
7
7
7
7
7
7
7
7
7
7
7
7
7
7
7
7
7
7
7
7
7
7
7
7
7
7
7
7
7
7
7
7
7
7
CELL_DATA 36
FIELD FieldData 1
material 1 36 int
1
1
1
1
1
1
1
1
1
1
1
1
1
1
1
1
1
1
1
1
1
1
1
1
1
1
1
1
1
1
1
1
1
1
1
1
POINT_DATA 288 SCALARS flux_g1 double 
LOOKUP_TABLE   default 
-0.202755
0.115783
-0.237787
6.060011
6.527296
6.060011
-0.237787
0.115783
-0.239770
0.120542
-0.178369
0.092347
-0.252253
6.089569
6.528376
6.059508
0.180435
-0.118350
0.232269
-6.072789
-6.519953
-6.082524
0.251662
-0.086490
0.232269
-0.118350
0.180435
-0.086490
0.251662
-6.082524
-6.519953
-6.072789
-0.178369
0.120542
-0.239770
6.059508
6.528376
6.089569
-0.252253
0.092347
-0.237787
0.115783
-0.202755
0.115783
-0.237787
6.060011
6.527296
6.060011
-0.239770
6.059508
6.528376
6.089569
-0.252253
0.092347
-0.178369
0.120542
6.529795
6.091213
-0.252534
0.093888
-0.150742
0.093888
-0.252534
6.091213
0.253031
-6.083021
-6.521533
-6.093494
0.256421
-0.092175
0.146374
-0.099629
-6.521533
-6.083021
0.253031
-0.099629
0.146374
-0.092175
0.256421
-6.093494
-0.252534
6.091213
6.529795
6.091213
-0.252534
0.093888
-0.150742
0.093888
6.528376
6.059508
-0.239770
0.120542
-0.178369
0.092347
-0.252253
6.089569
0.180435
-0.086490
0.251662
-6.082524
-6.519953
-6.072789
0.232269
-0.118350
0.253031
-0.099629
0.146374
-0.092175
0.256421
-6.093494
-6.521533
-6.083021
-0.153037
0.093602
-0.249740
6.089894
6.513176
6.089894
-0.249740
0.093602
-0.249740
0.093602
-0.153037
0.093602
-0.249740
6.089894
6.513176
6.089894
0.146374
-0.099629
0.253031
-6.083021
-6.521533
-6.093494
0.256421
-0.092175
0.251662
-0.086490
0.180435
-0.118350
0.232269
-6.072789
-6.519953
-6.082524
0.232269
-6.072789
-6.519953
-6.082524
0.251662
-0.086490
0.180435
-0.118350
-6.521533
-6.093494
0.256421
-0.092175
0.146374
-0.099629
0.253031
-6.083021
-0.249740
6.089894
6.513176
6.089894
-0.249740
0.093602
-0.153037
0.093602
6.513176
6.089894
-0.249740
0.093602
-0.153037
0.093602
-0.249740
6.089894
0.256421
-6.093494
-6.521533
-6.083021
0.253031
-0.099629
0.146374
-0.092175
-6.519953
-6.072789
0.232269
-0.118350
0.180435
-0.086490
0.251662
-6.082524
-0.178369
0.092347
-0.252253
6.089569
6.528376
6.059508
-0.239770
0.120542
-0.252534
0.093888
-0.150742
0.093888
-0.252534
6.091213
6.529795
6.091213
0.146374
-0.092175
0.256421
-6.093494
-6.521533
-6.083021
0.253031
-0.099629
0.256421
-0.092175
0.146374
-0.099629
0.253031
-6.083021
-6.521533
-6.093494
-0.150742
0.093888
-0.252534
6.091213
6.529795
6.091213
-0.252534
0.093888
-0.252253
0.092347
-0.178369
0.120542
-0.239770
6.059508
6.528376
6.089569
-0.237787
6.060011
6.527296
6.060011
-0.237787
0.115783
-0.202755
0.115783
6.528376
6.089569
-0.252253
0.092347
-0.178369
0.120542
-0.239770
6.059508
0.251662
-6.082524
-6.519953
-6.072789
0.232269
-0.118350
0.180435
-0.086490
-6.519953
-6.082524
0.251662
-0.086490
0.180435
-0.118350
0.232269
-6.072789
-0.252253
6.089569
6.528376
6.059508
-0.239770
0.120542
-0.178369
0.092347
6.527296
6.060011
-0.237787
0.115783
-0.202755
0.115783
-0.237787
6.060011
 
