# vtk DataFile Version 3.0 
Date: 3/21/2016   Time: 12:48
ASCII 
DATASET UNSTRUCTURED_GRID 
 
POINTS 4608 float 
0.000000 0.000000 0.000000 
0.020833 0.000000 0.000000 
0.041667 0.000000 0.000000 
0.041667 0.020833 0.000000 
0.041667 0.041667 0.000000 
0.020833 0.041667 0.000000 
0.000000 0.041667 0.000000 
0.000000 0.020833 0.000000 
0.166667 0.000000 0.000000 
0.187500 0.000000 0.000000 
0.208333 0.000000 0.000000 
0.208333 0.020833 0.000000 
0.208333 0.041667 0.000000 
0.187500 0.041667 0.000000 
0.166667 0.041667 0.000000 
0.166667 0.020833 0.000000 
0.333333 0.000000 0.000000 
0.354167 0.000000 0.000000 
0.375000 0.000000 0.000000 
0.375000 0.020833 0.000000 
0.375000 0.041667 0.000000 
0.354167 0.041667 0.000000 
0.333333 0.041667 0.000000 
0.333333 0.020833 0.000000 
0.500000 0.000000 0.000000 
0.520833 0.000000 0.000000 
0.541667 0.000000 0.000000 
0.541667 0.020833 0.000000 
0.541667 0.041667 0.000000 
0.520833 0.041667 0.000000 
0.500000 0.041667 0.000000 
0.500000 0.020833 0.000000 
0.666667 0.000000 0.000000 
0.687500 0.000000 0.000000 
0.708333 0.000000 0.000000 
0.708333 0.020833 0.000000 
0.708333 0.041667 0.000000 
0.687500 0.041667 0.000000 
0.666667 0.041667 0.000000 
0.666667 0.020833 0.000000 
0.833333 0.000000 0.000000 
0.854167 0.000000 0.000000 
0.875000 0.000000 0.000000 
0.875000 0.020833 0.000000 
0.875000 0.041667 0.000000 
0.854167 0.041667 0.000000 
0.833333 0.041667 0.000000 
0.833333 0.020833 0.000000 
0.000000 0.166667 0.000000 
0.020833 0.166667 0.000000 
0.041667 0.166667 0.000000 
0.041667 0.187500 0.000000 
0.041667 0.208333 0.000000 
0.020833 0.208333 0.000000 
0.000000 0.208333 0.000000 
0.000000 0.187500 0.000000 
0.166667 0.166667 0.000000 
0.187500 0.166667 0.000000 
0.208333 0.166667 0.000000 
0.208333 0.187500 0.000000 
0.208333 0.208333 0.000000 
0.187500 0.208333 0.000000 
0.166667 0.208333 0.000000 
0.166667 0.187500 0.000000 
0.333333 0.166667 0.000000 
0.354167 0.166667 0.000000 
0.375000 0.166667 0.000000 
0.375000 0.187500 0.000000 
0.375000 0.208333 0.000000 
0.354167 0.208333 0.000000 
0.333333 0.208333 0.000000 
0.333333 0.187500 0.000000 
0.500000 0.166667 0.000000 
0.520833 0.166667 0.000000 
0.541667 0.166667 0.000000 
0.541667 0.187500 0.000000 
0.541667 0.208333 0.000000 
0.520833 0.208333 0.000000 
0.500000 0.208333 0.000000 
0.500000 0.187500 0.000000 
0.666667 0.166667 0.000000 
0.687500 0.166667 0.000000 
0.708333 0.166667 0.000000 
0.708333 0.187500 0.000000 
0.708333 0.208333 0.000000 
0.687500 0.208333 0.000000 
0.666667 0.208333 0.000000 
0.666667 0.187500 0.000000 
0.833333 0.166667 0.000000 
0.854167 0.166667 0.000000 
0.875000 0.166667 0.000000 
0.875000 0.187500 0.000000 
0.875000 0.208333 0.000000 
0.854167 0.208333 0.000000 
0.833333 0.208333 0.000000 
0.833333 0.187500 0.000000 
0.000000 0.333333 0.000000 
0.020833 0.333333 0.000000 
0.041667 0.333333 0.000000 
0.041667 0.354167 0.000000 
0.041667 0.375000 0.000000 
0.020833 0.375000 0.000000 
0.000000 0.375000 0.000000 
0.000000 0.354167 0.000000 
0.166667 0.333333 0.000000 
0.187500 0.333333 0.000000 
0.208333 0.333333 0.000000 
0.208333 0.354167 0.000000 
0.208333 0.375000 0.000000 
0.187500 0.375000 0.000000 
0.166667 0.375000 0.000000 
0.166667 0.354167 0.000000 
0.333333 0.333333 0.000000 
0.354167 0.333333 0.000000 
0.375000 0.333333 0.000000 
0.375000 0.354167 0.000000 
0.375000 0.375000 0.000000 
0.354167 0.375000 0.000000 
0.333333 0.375000 0.000000 
0.333333 0.354167 0.000000 
0.500000 0.333333 0.000000 
0.520833 0.333333 0.000000 
0.541667 0.333333 0.000000 
0.541667 0.354167 0.000000 
0.541667 0.375000 0.000000 
0.520833 0.375000 0.000000 
0.500000 0.375000 0.000000 
0.500000 0.354167 0.000000 
0.666667 0.333333 0.000000 
0.687500 0.333333 0.000000 
0.708333 0.333333 0.000000 
0.708333 0.354167 0.000000 
0.708333 0.375000 0.000000 
0.687500 0.375000 0.000000 
0.666667 0.375000 0.000000 
0.666667 0.354167 0.000000 
0.833333 0.333333 0.000000 
0.854167 0.333333 0.000000 
0.875000 0.333333 0.000000 
0.875000 0.354167 0.000000 
0.875000 0.375000 0.000000 
0.854167 0.375000 0.000000 
0.833333 0.375000 0.000000 
0.833333 0.354167 0.000000 
0.000000 0.500000 0.000000 
0.020833 0.500000 0.000000 
0.041667 0.500000 0.000000 
0.041667 0.520833 0.000000 
0.041667 0.541667 0.000000 
0.020833 0.541667 0.000000 
0.000000 0.541667 0.000000 
0.000000 0.520833 0.000000 
0.166667 0.500000 0.000000 
0.187500 0.500000 0.000000 
0.208333 0.500000 0.000000 
0.208333 0.520833 0.000000 
0.208333 0.541667 0.000000 
0.187500 0.541667 0.000000 
0.166667 0.541667 0.000000 
0.166667 0.520833 0.000000 
0.333333 0.500000 0.000000 
0.354167 0.500000 0.000000 
0.375000 0.500000 0.000000 
0.375000 0.520833 0.000000 
0.375000 0.541667 0.000000 
0.354167 0.541667 0.000000 
0.333333 0.541667 0.000000 
0.333333 0.520833 0.000000 
0.500000 0.500000 0.000000 
0.520833 0.500000 0.000000 
0.541667 0.500000 0.000000 
0.541667 0.520833 0.000000 
0.541667 0.541667 0.000000 
0.520833 0.541667 0.000000 
0.500000 0.541667 0.000000 
0.500000 0.520833 0.000000 
0.666667 0.500000 0.000000 
0.687500 0.500000 0.000000 
0.708333 0.500000 0.000000 
0.708333 0.520833 0.000000 
0.708333 0.541667 0.000000 
0.687500 0.541667 0.000000 
0.666667 0.541667 0.000000 
0.666667 0.520833 0.000000 
0.833333 0.500000 0.000000 
0.854167 0.500000 0.000000 
0.875000 0.500000 0.000000 
0.875000 0.520833 0.000000 
0.875000 0.541667 0.000000 
0.854167 0.541667 0.000000 
0.833333 0.541667 0.000000 
0.833333 0.520833 0.000000 
0.000000 0.666667 0.000000 
0.020833 0.666667 0.000000 
0.041667 0.666667 0.000000 
0.041667 0.687500 0.000000 
0.041667 0.708333 0.000000 
0.020833 0.708333 0.000000 
0.000000 0.708333 0.000000 
0.000000 0.687500 0.000000 
0.166667 0.666667 0.000000 
0.187500 0.666667 0.000000 
0.208333 0.666667 0.000000 
0.208333 0.687500 0.000000 
0.208333 0.708333 0.000000 
0.187500 0.708333 0.000000 
0.166667 0.708333 0.000000 
0.166667 0.687500 0.000000 
0.333333 0.666667 0.000000 
0.354167 0.666667 0.000000 
0.375000 0.666667 0.000000 
0.375000 0.687500 0.000000 
0.375000 0.708333 0.000000 
0.354167 0.708333 0.000000 
0.333333 0.708333 0.000000 
0.333333 0.687500 0.000000 
0.500000 0.666667 0.000000 
0.520833 0.666667 0.000000 
0.541667 0.666667 0.000000 
0.541667 0.687500 0.000000 
0.541667 0.708333 0.000000 
0.520833 0.708333 0.000000 
0.500000 0.708333 0.000000 
0.500000 0.687500 0.000000 
0.666667 0.666667 0.000000 
0.687500 0.666667 0.000000 
0.708333 0.666667 0.000000 
0.708333 0.687500 0.000000 
0.708333 0.708333 0.000000 
0.687500 0.708333 0.000000 
0.666667 0.708333 0.000000 
0.666667 0.687500 0.000000 
0.833333 0.666667 0.000000 
0.854167 0.666667 0.000000 
0.875000 0.666667 0.000000 
0.875000 0.687500 0.000000 
0.875000 0.708333 0.000000 
0.854167 0.708333 0.000000 
0.833333 0.708333 0.000000 
0.833333 0.687500 0.000000 
0.000000 0.833333 0.000000 
0.020833 0.833333 0.000000 
0.041667 0.833333 0.000000 
0.041667 0.854167 0.000000 
0.041667 0.875000 0.000000 
0.020833 0.875000 0.000000 
0.000000 0.875000 0.000000 
0.000000 0.854167 0.000000 
0.166667 0.833333 0.000000 
0.187500 0.833333 0.000000 
0.208333 0.833333 0.000000 
0.208333 0.854167 0.000000 
0.208333 0.875000 0.000000 
0.187500 0.875000 0.000000 
0.166667 0.875000 0.000000 
0.166667 0.854167 0.000000 
0.333333 0.833333 0.000000 
0.354167 0.833333 0.000000 
0.375000 0.833333 0.000000 
0.375000 0.854167 0.000000 
0.375000 0.875000 0.000000 
0.354167 0.875000 0.000000 
0.333333 0.875000 0.000000 
0.333333 0.854167 0.000000 
0.500000 0.833333 0.000000 
0.520833 0.833333 0.000000 
0.541667 0.833333 0.000000 
0.541667 0.854167 0.000000 
0.541667 0.875000 0.000000 
0.520833 0.875000 0.000000 
0.500000 0.875000 0.000000 
0.500000 0.854167 0.000000 
0.666667 0.833333 0.000000 
0.687500 0.833333 0.000000 
0.708333 0.833333 0.000000 
0.708333 0.854167 0.000000 
0.708333 0.875000 0.000000 
0.687500 0.875000 0.000000 
0.666667 0.875000 0.000000 
0.666667 0.854167 0.000000 
0.833333 0.833333 0.000000 
0.854167 0.833333 0.000000 
0.875000 0.833333 0.000000 
0.875000 0.854167 0.000000 
0.875000 0.875000 0.000000 
0.854167 0.875000 0.000000 
0.833333 0.875000 0.000000 
0.833333 0.854167 0.000000 
0.166667 0.000000 0.000000 
0.166667 0.020833 0.000000 
0.166667 0.041667 0.000000 
0.145833 0.041667 0.000000 
0.125000 0.041667 0.000000 
0.125000 0.020833 0.000000 
0.125000 0.000000 0.000000 
0.145833 0.000000 0.000000 
0.166667 0.166667 0.000000 
0.145833 0.166667 0.000000 
0.125000 0.166667 0.000000 
0.125000 0.145833 0.000000 
0.125000 0.125000 0.000000 
0.145833 0.125000 0.000000 
0.166667 0.125000 0.000000 
0.166667 0.145833 0.000000 
0.000000 0.166667 0.000000 
0.000000 0.145833 0.000000 
0.000000 0.125000 0.000000 
0.020833 0.125000 0.000000 
0.041667 0.125000 0.000000 
0.041667 0.145833 0.000000 
0.041667 0.166667 0.000000 
0.020833 0.166667 0.000000 
0.333333 0.000000 0.000000 
0.333333 0.020833 0.000000 
0.333333 0.041667 0.000000 
0.312500 0.041667 0.000000 
0.291667 0.041667 0.000000 
0.291667 0.020833 0.000000 
0.291667 0.000000 0.000000 
0.312500 0.000000 0.000000 
0.333333 0.166667 0.000000 
0.312500 0.166667 0.000000 
0.291667 0.166667 0.000000 
0.291667 0.145833 0.000000 
0.291667 0.125000 0.000000 
0.312500 0.125000 0.000000 
0.333333 0.125000 0.000000 
0.333333 0.145833 0.000000 
0.166667 0.166667 0.000000 
0.166667 0.145833 0.000000 
0.166667 0.125000 0.000000 
0.187500 0.125000 0.000000 
0.208333 0.125000 0.000000 
0.208333 0.145833 0.000000 
0.208333 0.166667 0.000000 
0.187500 0.166667 0.000000 
0.500000 0.000000 0.000000 
0.500000 0.020833 0.000000 
0.500000 0.041667 0.000000 
0.479167 0.041667 0.000000 
0.458333 0.041667 0.000000 
0.458333 0.020833 0.000000 
0.458333 0.000000 0.000000 
0.479167 0.000000 0.000000 
0.500000 0.166667 0.000000 
0.479167 0.166667 0.000000 
0.458333 0.166667 0.000000 
0.458333 0.145833 0.000000 
0.458333 0.125000 0.000000 
0.479167 0.125000 0.000000 
0.500000 0.125000 0.000000 
0.500000 0.145833 0.000000 
0.333333 0.166667 0.000000 
[...]
CELL_DATA 576
FIELD FieldData 1
material 1 576 int
1
1
1
1
1
1
1
1
1
1
1
1
1
1
1
1
1
1
1
1
1
1
1
1
1
1
1
1
1
1
1
1
1
1
1
1
1
1
1
1
1
1
1
1
1
1
1
1
1
1
1
1
1
1
1
1
1
1
1
1
1
1
1
1
1
1
1
1
1
1
1
1
1
1
1
1
1
1
1
1
1
1
1
1
1
1
1
1
1
1
1
1
1
1
1
1
1
1
1
1
1
1
1
1
1
1
1
1
1
1
1
1
1
1
1
1
1
1
1
1
1
1
1
1
1
1
1
1
1
1
1
1
1
1
1
1
1
1
1
1
1
1
1
1
1
1
1
1
1
1
1
1
1
1
1
1
1
1
1
1
1
1
1
1
1
1
1
1
1
1
1
1
1
1
1
1
1
1
1
1
1
1
1
1
1
1
1
1
1
1
1
1
1
1
1
1
1
1
1
1
1
1
1
1
1
1
1
1
1
1
1
1
1
1
1
1
1
1
1
1
1
1
1
1
1
1
1
1
1
1
1
1
1
1
1
1
1
1
1
1
1
1
1
1
1
1
1
1
1
1
1
1
1
1
1
1
1
1
1
1
1
1
1
1
1
1
1
1
1
1
1
1
1
1
1
1
1
1
1
1
1
1
1
1
1
1
1
1
1
1
1
1
1
1
1
1
1
1
1
1
1
1
1
1
1
1
1
1
1
1
1
1
1
1
1
1
1
1
1
1
1
1
1
1
1
1
1
1
1
1
1
1
1
1
1
1
1
1
1
1
1
1
1
1
1
1
1
1
1
1
1
1
1
1
1
1
1
1
1
1
1
1
1
1
1
1
1
1
1
1
1
1
1
1
1
1
1
1
1
1
1
1
1
1
1
1
1
1
1
1
1
1
1
1
1
1
1
1
1
1
1
1
1
1
1
1
1
1
1
1
1
1
1
1
1
1
1
1
1
1
1
1
1
1
1
1
1
1
1
1
1
1
1
1
1
1
1
1
1
1
1
1
1
1
1
1
1
1
1
1
1
1
1
1
1
1
1
1
1
1
1
1
1
1
1
1
1
1
1
1
1
1
1
1
1
1
1
1
1
1
1
1
1
1
1
1
1
1
1
1
1
1
1
1
1
1
1
1
1
1
1
1
1
1
1
1
1
1
1
1
1
1
1
1
1
1
1
1
1
1
1
1
1
1
1
1
1
1
1
1
1
1
1
1
1
1
1
1
1
1
1
1
1
1
1
1
1
1
1
1
1
1
1
1
1
1
1
1
1
1
1
1
1
1
1
1
1
1
1
1
1
1
1
1
1
1
POINT_DATA 4608 SCALARS flux_g1 double 
LOOKUP_TABLE   default 
-0.000872
-0.000433
-0.001465
0.478654
0.923818
0.478654
-0.001465
-0.000433
-0.005455
-0.002340
-0.005293
1.154539
2.225971
2.406566
2.410039
1.249847
0.000673
0.000467
0.001467
-0.478699
-0.923779
-0.478697
0.001619
0.000440
0.005446
0.002333
0.005288
-1.154541
-2.225975
-2.406573
-2.410047
-1.249848
-0.000664
-0.000459
-0.001464
0.478702
0.923781
0.478702
-0.001612
-0.000431
-0.005455
-0.002339
-0.005285
1.154534
2.225965
2.406568
2.410040
1.249846
-0.005455
1.249847
2.410039
2.406566
2.225971
1.154539
-0.005293
-0.002340
6.284299
6.283233
5.803844
5.804049
5.360039
5.804049
5.803844
6.283233
0.005481
-1.249812
-2.409962
-2.406695
-2.225889
-1.154491
0.005262
0.002398
-6.284301
-6.283233
-5.803842
-5.804052
-5.360042
-5.804055
-5.803850
-6.283256
-0.005478
1.249818
2.409970
2.406711
2.225899
1.154496
-0.005259
-0.002390
6.284301
6.283228
5.803839
5.804035
5.360039
5.804047
5.803845
6.283231
0.000673
0.000440
0.001619
-0.478697
-0.923779
-0.478699
0.001467
0.000467
0.005481
0.002398
0.005262
-1.154491
-2.225889
-2.406695
-2.409962
-1.249812
-0.000525
-0.000480
-0.001615
0.478721
0.923741
0.478721
-0.001615
-0.000480
-0.005476
-0.002394
-0.005260
1.154498
2.225897
2.406708
2.409961
1.249816
0.000520
0.000476
0.001611
-0.478723
-0.923742
-0.478722
0.001613
0.000474
0.005481
0.002396
0.005254
-1.154503
-2.225898
-2.406720
-2.409962
-1.249814
0.005446
-1.249848
-2.410047
-2.406573
-2.225975
-1.154541
0.005288
0.002333
-6.284301
-6.283256
-5.803850
-5.804055
-5.360042
-5.804052
-5.803842
-6.283233
-0.005476
1.249816
2.409961
2.406708
2.225897
1.154498
-0.005260
-0.002394
6.284296
6.283236
5.803839
5.804039
5.360035
5.804039
5.803839
6.283236
0.005481
-1.249812
-2.409959
-2.406705
-2.225893
-1.154494
0.005263
0.002398
-6.284304
-6.283234
-5.803835
-5.804026
-5.360030
-5.804034
-5.803845
-6.283231
-0.000664
-0.000431
-0.001612
0.478702
0.923781
0.478702
-0.001464
-0.000459
-0.005478
-0.002390
-0.005259
1.154496
2.225899
2.406711
2.409970
1.249818
0.000520
0.000474
0.001613
-0.478722
-0.923742
-0.478723
0.001611
0.000476
0.005481
0.002398
0.005263
-1.154494
-2.225893
-2.406705
-2.409959
-1.249812
-0.000525
-0.000477
-0.001617
0.478715
0.923730
0.478715
-0.001617
-0.000477
-0.005479
-0.002407
-0.005271
1.154487
2.225893
2.406722
2.409971
1.249817
-0.005455
1.249846
2.410040
2.406568
2.225965
1.154534
-0.005285
-0.002339
6.284301
6.283231
5.803845
5.804047
5.360039
5.804035
5.803839
6.283228
0.005481
-1.249814
-2.409962
-2.406720
-2.225898
-1.154503
0.005254
0.002396
-6.284304
-6.283231
-5.803845
-5.804034
-5.360030
-5.804026
-5.803835
-6.283234
-0.005479
1.249817
2.409971
2.406722
2.225893
1.154487
-0.005271
-0.002407
6.284304
6.283226
5.803841
5.804024
5.360027
5.804024
5.803841
6.283226
-0.005455
1.249846
2.410040
2.406568
2.225965
1.154534
-0.005285
-0.002339
6.284304
6.283226
5.803841
5.804024
5.360027
5.804024
5.803841
6.283226
-0.005455
-0.002339
-0.005285
1.154534
2.225965
2.406568
2.410040
1.249846
-0.000664
-0.000431
-0.001612
0.478702
0.923781
0.478702
-0.001464
-0.000459
-0.005479
1.249817
2.409971
2.406722
2.225893
1.154487
-0.005271
-0.002407
6.284301
6.283228
5.803839
5.804035
5.360039
5.804047
5.803845
6.283231
0.005446
-1.249848
-2.410047
-2.406573
-2.225975
-1.154541
0.005288
0.002333
-6.284304
-6.283231
-5.803845
-5.804034
-5.360030
-5.804026
-5.803835
-6.283234
0.005481
0.002396
0.005254
-1.154503
-2.225898
-2.406720
-2.409962
-1.249814
0.000673
0.000440
0.001619
-0.478697
-0.923779
-0.478699
0.001467
0.000467
0.005481
-1.249814
-2.409962
-2.406720
-2.225898
-1.154503
0.005254
0.002396
-6.284304
-6.283234
-5.803835
-5.804026
-5.360030
-5.804034
-5.803845
-6.283231
-0.005455
1.249847
2.410039
2.406566
2.225971
1.154539
-0.005293
-0.002340
6.284301
6.283231
5.803845
5.804047
5.360039
5.804035
5.803839
6.283228
-0.005479
-0.002407
-0.005271
1.154487
2.225893
2.406722
2.409971
1.249817
-0.000872
-0.000433
-0.001465
0.478654
0.923818
0.478654
-0.001465
-0.000433
-0.005455
1.249846
2.410040
2.406568
2.225965
1.154534
-0.005285
-0.002339
6.284304
6.283226
5.803841
5.804024
5.360027
5.804024
5.803841
6.283226
6.284301
6.283231
5.803845
5.804047
5.360039
5.804035
5.803839
6.283228
-0.005479
-0.002407
-0.005271
1.154487
2.225893
2.406722
2.409971
1.249817
-0.000664
-0.000459
-0.001464
0.478702
0.923781
0.478702
-0.001612
-0.000431
-0.005478
-0.002390
-0.005259
1.154496
2.225899
2.406711
2.409970
1.249818
-0.000525
-0.000477
-0.001617
0.478715
0.923730
0.478715
-0.001617
-0.000477
-0.005478
1.249818
2.409970
2.406711
2.225899
1.154496
-0.005259
-0.002390
-6.284301
-6.283256
-5.803850
-5.804055
-5.360042
-5.804052
-5.803842
-6.283233
0.005481
0.002398
0.005263
-1.154494
-2.225893
-2.406705
-2.409959
-1.249812
0.000520
0.000476
0.001611
-0.478723
-0.923742
-0.478722
0.001613
0.000474
0.005481
0.002398
0.005262
-1.154491
-2.225889
-2.406695
-2.409962
-1.249812
0.000520
0.000474
0.001613
-0.478722
-0.923742
-0.478723
0.001611
0.000476
0.005481
-1.249812
-2.409959
-2.406705
-2.225893
-1.154494
0.005263
0.002398
6.284299
6.283233
5.803844
5.804049
5.360039
5.804049
5.803844
6.283233
-0.005478
-0.002390
-0.005259
1.154496
2.225899
2.406711
2.409970
1.249818
-0.000525
-0.000477
-0.001617
0.478715
0.923730
0.478715
-0.001617
-0.000477
-0.005455
-0.002340
-0.005293
1.154539
2.225971
2.406566
2.410039
1.249847
-0.000664
-0.000431
-0.001612
0.478702
0.923781
0.478702
-0.001464
-0.000459
-0.005479
1.249817
2.409971
2.406722
2.225893
1.154487
-0.005271
-0.002407
0.005481
-1.249814
-2.409962
-2.406720
-2.225898
-1.154503
0.005254
0.002396
-6.284304
-6.283234
-5.803835
-5.804026
-5.360030
-5.804034
-5.803845
-6.283231
0.005446
0.002333
0.005288
-1.154541
-2.225975
-2.406573
-2.410047
-1.249848
0.000520
0.000474
0.001613
-0.478722
-0.923742
-0.478723
0.001611
0.000476
0.005481
-1.249812
-2.409959
-2.406705
-2.225893
-1.154494
0.005263
0.002398
-6.284301
-6.283233
-5.803842
-5.804052
-5.360042
-5.804055
-5.803850
-6.283256
-0.005476
1.249816
2.409961
2.406708
2.225897
1.154498
-0.005260
-0.002394
6.284296
6.283236
5.803839
5.804039
5.360035
5.804039
5.803839
6.283236
-0.005476
-0.002394
-0.005260
1.154498
2.225897
2.406708
2.409961
1.249816
-0.000525
-0.000480
-0.001615
0.478721
0.923741
0.478721
-0.001615
-0.000480
-0.005476
1.249816
2.409961
2.406708
2.225897
1.154498
-0.005260
-0.002394
6.284296
6.283236
5.803839
5.804039
5.360035
5.804039
5.803839
6.283236
0.005481
-1.249812
-2.409962
-2.406695
-2.225889
-1.154491
0.005262
0.002398
-6.284301
-6.283256
-5.803850
-5.804055
-5.360042
-5.804052
-5.803842
-6.283233
0.005481
0.002398
0.005263
-1.154494
-2.225893
-2.406705
-2.409959
-1.249812
0.000673
0.000467
0.001467
-0.478699
-0.923779
-0.478697
0.001619
0.000440
0.005446
-1.249848
-2.410047
-2.406573
-2.225975
-1.154541
0.005288
0.002333
-6.284304
-6.283231
-5.803845
-5.804034
-5.360030
-5.804026
-5.803835
-6.283234
-6.284304
-6.283231
-5.803845
-5.804034
-5.360030
-5.804026
-5.803835
-6.283234
0.005481
0.002396
0.005254
-1.154503
-2.225898
-2.406720
-2.409962
-1.249814
0.000673
0.000467
0.001467
-0.478699
-0.923779
-0.478697
0.001619
0.000440
0.005481
0.002398
0.005263
-1.154494
-2.225893
-2.406705
-2.409959
-1.249812
0.000520
0.000476
0.001611
-0.478723
-0.923742
-0.478722
0.001613
0.000474
0.005481
-1.249812
-2.409962
-2.406695
-2.225889
-1.154491
0.005262
0.002398
6.284296
6.283236
5.803839
5.804039
5.360035
5.804039
5.803839
6.283236
-0.005476
-0.002394
-0.005260
1.154498
2.225897
2.406708
2.409961
1.249816
-0.000525
-0.000480
-0.001615
0.478721
0.923741
0.478721
-0.001615
-0.000480
-0.005476
-0.002394
-0.005260
1.154498
2.225897
2.406708
2.409961
1.249816
-0.000525
-0.000480
-0.001615
0.478721
0.923741
0.478721
-0.001615
-0.000480
-0.005476
1.249816
2.409961
2.406708
2.225897
1.154498
-0.005260
-0.002394
-6.284301
-6.283233
-5.803842
-5.804052
-5.360042
-5.804055
-5.803850
-6.283256
0.005481
0.002398
0.005262
-1.154491
-2.225889
-2.406695
-2.409962
-1.249812
0.000520
0.000474
0.001613
-0.478722
-0.923742
-0.478723
0.001611
0.000476
0.005446
0.002333
0.005288
-1.154541
-2.225975
-2.406573
-2.410047
-1.249848
0.000673
0.000440
0.001619
-0.478697
-0.923779
-0.478699
0.001467
0.000467
0.005481
-1.249814
-2.409962
-2.406720
-2.225898
-1.154503
0.005254
0.002396
-0.005479
1.249817
2.409971
2.406722
2.225893
1.154487
-0.005271
-0.002407
6.284301
6.283228
5.803839
5.804035
5.360039
5.804047
5.803845
6.283231
-0.005455
-0.002340
-0.005293
1.154539
2.225971
2.406566
2.410039
1.249847
-0.000525
-0.000477
-0.001617
0.478715
0.923730
0.478715
-0.001617
-0.000477
-0.005478
1.249818
2.409970
2.406711
2.225899
1.154496
-0.005259
-0.002390
6.284299
6.283233
5.803844
5.804049
5.360039
5.804049
5.803844
6.283233
0.005481
-1.249812
-2.409959
-2.406705
-2.225893
-1.154494
0.005263
0.002398
-6.284301
-6.283233
-5.803842
-5.804052
-5.360042
-5.804055
-5.803850
-6.283256
0.005481
0.002398
0.005262
-1.154491
-2.225889
-2.406695
-2.409962
-1.249812
0.000520
0.000476
0.001611
-0.478723
-0.923742
-0.478722
0.001613
0.000474
0.005481
-1.249812
-2.409962
-2.406695
-2.225889
-1.154491
0.005262
0.002398
-6.284301
-6.283256
-5.803850
-5.804055
-5.360042
-5.804052
-5.803842
-6.283233
-0.005478
1.249818
2.409970
2.406711
2.225899
1.154496
-0.005259
-0.002390
6.284299
6.283233
5.803844
5.804049
5.360039
5.804049
5.803844
6.283233
-0.005478
-0.002390
-0.005259
1.154496
2.225899
2.406711
2.409970
1.249818
-0.000664
-0.000459
-0.001464
0.478702
0.923781
0.478702
-0.001612
-0.000431
-0.005455
1.249847
2.410039
2.406566
2.225971
1.154539
-0.005293
-0.002340
6.284301
6.283231
5.803845
5.804047
5.360039
5.804035
5.803839
6.283228
6.284304
6.283226
5.803841
5.804024
5.360027
5.804024
5.803841
6.283226
-0.005455
-0.002339
-0.005285
1.154534
2.225965
2.406568
2.410040
1.249846
-0.000872
-0.000433
-0.001465
0.478654
0.923818
0.478654
-0.001465
-0.000433
-0.005479
-0.002407
-0.005271
1.154487
2.225893
2.406722
2.409971
1.249817
-0.000664
-0.000459
-0.001464
0.478702
0.923781
0.478702
-0.001612
-0.000431
-0.005455
1.249847
2.410039
2.406566
2.225971
1.154539
-0.005293
-0.002340
-6.284304
-6.283234
-5.803835
-5.804026
-5.360030
-5.804034
-5.803845
-6.283231
0.005446
0.002333
0.005288
-1.154541
-2.225975
-2.406573
-2.410047
-1.249848
0.000673
0.000440
0.001619
-0.478697
-0.923779
-0.478699
0.001467
0.000467
0.005481
0.002396
0.005254
-1.154503
-2.225898
-2.406720
-2.409962
-1.249814
0.000673
0.000467
0.001467
-0.478699
-0.923779
-0.478697
0.001619
0.000440
0.005446
-1.249848
-2.410047
-2.406573
-2.225975
-1.154541
0.005288
0.002333
6.284301
6.283228
5.803839
5.804035
5.360039
5.804047
5.803845
6.283231
-0.005455
-0.002340
-0.005293
1.154539
2.225971
2.406566
2.410039
1.249847
-0.000664
-0.000431
-0.001612
0.478702
0.923781
0.478702
-0.001464
-0.000459
-0.005455
-0.002339
-0.005285
1.154534
2.225965
2.406568
2.410040
1.249846
-0.000872
-0.000433
-0.001465
0.478654
0.923818
0.478654
-0.001465
-0.000433
-0.005455
1.249846
2.410040
2.406568
2.225965
1.154534
-0.005285
-0.002339
-0.003370
0.884085
1.705285
1.363225
0.920838
0.477830
-0.002696
-0.001303
3.147336
2.517741
1.698832
1.360695
0.916098
1.360695
1.698832
2.517741
-0.003370
-0.001303
-0.002696
0.477830
0.920838
1.363225
1.705285
0.884085
-0.004324
0.883467
1.703020
2.040193
2.227207
1.154871
-0.004781
-0.001981
3.142398
3.767988
4.110304
3.288808
2.218248
2.036368
1.695202
2.515809
4.447521
3.559209
2.399939
2.402055
2.216278
3.287778
4.107627
4.444641
0.003377
-0.884085
-1.705303
-1.363217
-0.920795
-0.477895
0.002702
0.001318
-3.147348
-2.517694
-1.698764
-1.360820
-0.916044
-1.360659
-1.698841
-2.517709
0.003501
0.001349
0.002578
-0.477799
-0.920801
-1.363305
-1.705229
-0.884099
0.004321
-0.883469
-1.703019
-2.040193
-2.227211
-1.154875
0.004777
0.001978
-3.142399
-3.767994
-4.110315
-3.288817
-2.218248
-2.036365
-1.695200
-2.515806
-4.447523
-3.559233
-2.399949
-2.402058
-2.216278
-3.287787
-4.107637
-4.444652
-0.003380
0.884083
1.705304
1.363218
0.920797
0.477897
-0.002698
-0.001320
3.147346
2.517696
1.698764
1.360823
0.916046
1.360659
1.698842
2.517713
-0.003497
-0.001342
-0.002571
0.477803
0.920802
1.363309
1.705230
0.884101
-0.004314
0.883474
1.702998
2.040173
2.227200
1.154868
-0.004772
-0.001968
3.142379
3.767979
4.110315
3.288818
2.218232
2.036354
1.695189
2.515854
4.447522
3.559209
2.399939
2.402037
2.216264
3.287779
4.107644
4.444656
4.447521
4.444641
4.107627
3.287778
2.216278
2.402055
2.399939
3.559209
3.142398
2.515809
1.695202
2.036368
2.218248
3.288808
4.110304
3.767988
-0.004324
-0.001981
-0.004781
1.154871
2.227207
2.040193
1.703020
0.883467
4.439808
4.441240
4.100224
4.920438
5.364065
5.805882
5.808037
5.326676
3.136415
3.765097
4.103472
4.921993
5.367785
4.921993
4.103472
3.765097
4.439808
5.326676
5.808037
5.805882
5.364065
4.920438
4.100224
4.441240
-4.447551
-4.444614
-4.107655
-3.287724
-2.216168
-2.402271
-2.399836
-3.559168
-3.142416
-2.515759
-1.695121
-2.036556
-2.218141
-3.288763
-4.110336
-3.767970
0.004241
0.002032
0.004862
-1.154856
-2.227124
-2.040310
-1.702963
-0.883417
-4.439802
-4.441229
-4.100214
-4.920435
-5.364069
-5.805884
-5.808037
-5.326672
-3.136415
-3.765093
-4.103462
-4.921986
-5.367790
-4.921990
-4.103462
-3.765097
-4.439796
-5.326674
-5.808045
-5.805890
-5.364070
-4.920430
-4.100215
-4.441225
4.447557
4.444626
4.107664
3.287737
2.216178
2.402287
2.399845
3.559177
3.142416
2.515753
1.695113
2.036557
2.218152
3.288777
4.110347
3.767970
-0.004246
-0.002032
-0.004859
1.154861
2.227134
2.040312
1.702954
0.883411
4.439761
4.441282
4.100175
4.920408
5.364058
5.805881
5.808026
5.326649
3.136388
3.765069
4.103460
4.921990
5.367781
4.921959
4.103418
3.765135
4.439809
5.326674
5.808039
5.805886
5.364067
4.920425
4.100217
4.441235
0.003501
-0.884099
-1.705229
-1.363305
-0.920801
-0.477799
0.002578
0.001349
-3.147348
-2.517709
-1.698841
-1.360659
-0.916044
-1.360820
-1.698764
-2.517694
0.003377
0.001318
0.002702
-0.477895
-0.920795
-1.363217
-1.705303
-0.884085
0.004241
-0.883417
-1.702963
-2.040310
-2.227124
-1.154856
0.004862
0.002032
-3.142416
-3.767970
-4.110336
-3.288763
-2.218141
-2.036556
-1.695121
-2.515759
-4.447551
-3.559168
-2.399836
-2.402271
-2.216168
-3.287724
-4.107655
-4.444614
-0.003503
0.884091
1.705240
1.363288
0.920758
0.477840
-0.002580
-0.001356
3.147367
2.517671
1.698765
1.360780
0.915993
1.360780
1.698765
2.517671
-0.003503
-0.001356
-0.002580
0.477840
0.920758
1.363288
1.705240
0.884091
-0.004242
0.883417
1.702958
2.040309
2.227132
1.154863
-0.004860
-0.002030
3.142410
3.767963
4.110338
3.288766
2.218149
2.036555
1.695117
2.515752
4.447548
3.559172
2.399838
2.402280
2.216175
3.287727
4.107656
4.444619
0.003502
-0.884092
-1.705246
-1.363292
-0.920760
-0.477844
0.002576
0.001352
-3.147373
-2.517672
-1.698762
-1.360780
-0.915995
-1.360784
-1.698769
-2.517679
0.003506
0.001358
0.002578
-0.477842
-0.920760
-1.363288
-1.705238
-0.884088
0.004240
-0.883429
-1.702942
-2.040291
-2.227131
-1.154868
0.004855
0.002024
-3.142384
-3.767937
-4.110330
-3.288763
-2.218146
-2.036548
-1.695113
-2.515791
-4.447552
-3.559166
-2.399836
-2.402282
-2.216174
-3.287716
-4.107651
-4.444623
-4.447523
-4.444652
-4.107637
-3.287787
-2.216278
-2.402058
-2.399949
-3.559233
-3.142399
-2.515806
-1.695200
-2.036365
-2.218248
-3.288817
-4.110315
-3.767994
0.004321
0.001978
0.004777
-1.154875
-2.227211
-2.040193
-1.703019
-0.883469
-4.439796
-4.441225
-4.100215
-4.920430
-5.364070
-5.805890
-5.808045
-5.326674
-3.136415
-3.765097
-4.103462
-4.921990
-5.367790
-4.921986
-4.103462
-3.765093
-4.439802
-5.326672
-5.808037
-5.805884
-5.364069
-4.920435
-4.100214
-4.441229
4.447548
4.444619
4.107656
3.287727
2.216175
2.402280
2.399838
3.559172
3.142410
2.515752
1.695117
2.036555
2.218149
3.288766
4.110338
3.767963
-0.004242
-0.002030
-0.004860
1.154863
2.227132
2.040309
1.702958
0.883417
4.439800
4.441230
4.100215
4.920427
5.364061
5.805873
5.808032
5.326676
3.136409
3.765089
4.103463
4.921981
5.367783
4.921981
4.103463
3.765089
4.439800
5.326676
5.808032
5.805873
5.364061
4.920427
4.100215
4.441230
-4.447543
-4.444613
-4.107656
-3.287723
-2.216171
-2.402277
-2.399835
-3.559169
-3.142416
-2.515752
-1.695115
-2.036551
-2.218145
-3.288762
-4.110338
-3.767965
0.004245
0.002033
0.004864
-1.154859
-2.227129
-2.040305
-1.702955
-0.883414
-4.439765
-4.441291
-4.100187
-4.920403
-5.364051
-5.805873
-5.808021
-5.326645
-3.136392
-3.765071
-4.103452
-4.921982
-5.367773
-4.921953
-4.103430
-3.765145
-4.439803
-5.326669
-5.808038
-5.805873
-5.364058
-4.920415
-4.100209
-4.441226
-0.003497
0.884101
1.705230
1.363309
0.920802
0.477803
-0.002571
-0.001342
3.147346
2.517713
1.698842
1.360659
0.916046
1.360823
1.698764
2.517696
-0.003380
-0.001320
-0.002698
0.477897
0.920797
1.363218
1.705304
0.884083
-0.004246
0.883411
1.702954
2.040312
2.227134
1.154861
-0.004859
-0.002032
3.142416
3.767970
4.110347
3.288777
2.218152
2.036557
1.695113
2.515753
4.447557
3.559177
2.399845
2.402287
2.216178
3.287737
4.107664
4.444626
0.003506
-0.884088
-1.705238
-1.363288
-0.920760
-0.477842
0.002578
0.001358
-3.147373
-2.517679
-1.698769
-1.360784
-0.915995
-1.360780
-1.698762
-2.517672
0.003502
0.001352
0.002576
-0.477844
-0.920760
-1.363292
-1.705246
-0.884092
0.004245
-0.883414
-1.702955
-2.040305
-2.227129
-1.154859
0.004864
0.002033
-3.142416
-3.767965
-4.110338
-3.288762
-2.218145
-2.036551
-1.695115
-2.515752
-4.447543
-3.559169
-2.399835
-2.402277
-2.216171
-3.287723
-4.107656
-4.444613
-0.003508
0.884085
1.705238
1.363277
0.920748
0.477835
-0.002582
-0.001364
3.147374
2.517673
1.698762
1.360768
0.915983
1.360768
1.698762
2.517673
-0.003508
-0.001364
-0.002582
0.477835
0.920748
1.363277
1.705238
0.884085
-0.004234
0.883435
1.702944
2.040285
2.227126
1.154856
-0.004870
-0.002028
3.142381
3.767932
4.110338
3.288767
2.218142
2.036541
1.695115
2.515791
4.447559
3.559177
2.399845
2.402282
2.216169
3.287722
4.107660
4.444632
4.447522
4.444656
4.107644
3.287779
2.216264
2.402037
2.399939
3.559209
3.142379
2.515854
1.695189
2.036354
2.218232
3.288818
4.110315
3.767979
-0.004314
-0.001968
-0.004772
1.154868
2.227200
2.040173
1.702998
0.883474
4.439809
4.441235
4.100217
4.920425
5.364067
5.805886
5.808039
5.326674
3.136388
3.765135
4.103418
4.921959
5.367781
4.921990
4.103460
3.765069
4.439761
5.326649
5.808026
5.805881
5.364058
4.920408
4.100175
4.441282
-4.447552
-4.444623
-4.107651
-3.287716
-2.216174
-2.402282
-2.399836
-3.559166
-3.142384
-2.515791
-1.695113
-2.036548
-2.218146
-3.288763
-4.110330
-3.767937
0.004240
0.002024
0.004855
-1.154868
-2.227131
-2.040291
-1.702942
-0.883429
-4.439803
-4.441226
-4.100209
-4.920415
-5.364058
-5.805873
-5.808038
-5.326669
-3.136392
-3.765145
-4.103430
-4.921953
-5.367773
-4.921982
-4.103452
-3.765071
-4.439765
-5.326645
-5.808021
-5.805873
-5.364051
-4.920403
-4.100187
-4.441291
4.447559
4.444632
4.107660
3.287722
2.216169
2.402282
2.399845
3.559177